
     Program PWSCF v.4.2.1      starts on  7Feb2011 at 16:59: 4 

     This program is part of the open-source Quantum ESPRESSO suite
     for quantum simulation of materials; please acknowledge
         "P. Giannozzi et al., J. Phys.:Condens. Matter 21 395502 (2009);
          URL http://www.quantum-espresso.org", 
     in publications or presentations arising from this work. More details at
     http://www.quantum-espresso.org/wiki/index.php/Citing_Quantum-ESPRESSO

     Parallel version (MPI), running on     1 processors

     Current dimensions of program PWSCF are:
     Max number of different atomic species (ntypx) = 10
     Max number of k-points (npk) =  40000
     Max angular momentum in pseudopotentials (lmaxx) =  3
     Waiting for input...
     file C.pbe-rrkjus.UPF: wavefunction(s)  2S 2P renormalized

     Subspace diagonalization in iterative solution of the eigenvalue problem:
     Too few procs for parallel algorithm: we need at least 4 procs per pool
     a serial algorithm will be used

     warning: symmetry operation #  2 not allowed.   fractional translation:
       0.3327597 -0.3335690  0.0000000  in crystal coordinates
     warning: symmetry operation # 13 not allowed.   fractional translation:
       0.3327597 -0.3335690  0.0000000  in crystal coordinates

     Planes per process (thick) : nr3 = 108 npp =  108 ncplane =   729
     Planes per process (smooth): nr3s=  96 npps=   96 ncplanes=   576

     Proc/  planes cols     G    planes cols    G      columns  G
     Pool       (dense grid)       (smooth grid)      (wavefct grid)
        1   108    439    31059   96    361    22233    109     3795



     bravais-lattice index     =            4
     lattice parameter (a_0)   =       4.6487  a.u.
     unit-cell volume          =     353.6698 (a.u.)^3
     number of atoms/cell      =            2
     number of atomic types    =            1
     number of electrons       =         8.00
     number of Kohn-Sham states=           12
     kinetic-energy cutoff     =      60.0000  Ry
     charge density cutoff     =     300.0000  Ry
     convergence threshold     =      1.0E-08
     mixing beta               =       0.3000
     number of iterations used =            8  plain     mixing
     Exchange-correlation      =  SLA  PW   PBE  PBE (1434)
     EXX-fraction              =        0.00

     celldm(1)=   4.648728  celldm(2)=   0.000000  celldm(3)=   4.065041
     celldm(4)=   0.000000  celldm(5)=   0.000000  celldm(6)=   0.000000

     crystal axes: (cart. coord. in units of a_0)
               a(1) = (  1.000000  0.000000  0.000000 )  
               a(2) = ( -0.500000  0.866025  0.000000 )  
               a(3) = (  0.000000  0.000000  4.065041 )  

     reciprocal axes: (cart. coord. in units 2 pi/a_0)
               b(1) = (  1.000000  0.577350 -0.000000 )  
               b(2) = (  0.000000  1.154701  0.000000 )  
               b(3) = (  0.000000 -0.000000  0.246000 )  


     PseudoPot. # 1 for C  read from file C.pbe-rrkjus.UPF
     Pseudo is Ultrasoft, Zval =  4.0
     Generated by new atomic code, or converted to UPF format
     Using radial grid of  627 points,  4 beta functions with: 
                l(1) =   0
                l(2) =   0
                l(3) =   1
                l(4) =   1
     Q(r) pseudized with 0 coefficients 


     atomic species   valence    mass     pseudopotential
        C              4.00    12.00000     C ( 1.00)

      2 Sym.Ops. (no inversion)


   Cartesian axes

     site n.     atom                  positions (a_0 units)
         1           C   tau(  1) = (   0.0000000  -0.0000371   0.0000000  )
         2           C   tau(  2) = (   0.5004558   0.2889163   0.0000000  )

     number of k points=   130  gaussian broad. (Ry)=  0.0200     ngauss =   0

     Number of k-points >= 100: set verbosity='high' to print them.

     G cutoff =  164.2214  (  31059 G-vectors)     FFT grid: ( 27, 27,108)
     G cutoff =  131.3771  (  22233 G-vectors)  smooth grid: ( 24, 24, 96)

     Largest allocated arrays     est. size (Mb)     dimensions
        Kohn-Sham Wavefunctions         0.51 Mb     (   2790,  12)
        NL pseudopotentials             0.68 Mb     (   2790,  16)
        Each V/rho on FFT grid          1.20 Mb     (  78732)
        Each G-vector array             0.24 Mb     (  31059)
        G-vector shells                 0.01 Mb     (   1631)
     Largest temporary arrays     est. size (Mb)     dimensions
        Auxiliary wavefunctions         2.04 Mb     (   2790,  48)
        Each subspace H/S matrix        0.04 Mb     (     48,  48)
        Each <psi_i|beta_j> matrix      0.00 Mb     (     16,  12)
        Arrays for rho mixing           9.61 Mb     (  78732,   8)

     Initial potential from superposition of free atoms

     starting charge    7.99989, renormalised to    8.00000

     negative rho (up, down):  0.136E-07 0.000E+00
     Starting wfc are    8 atomic +    4 random wfc

     total cpu time spent up to now is     18.52 secs

     per-process dynamical memory:    23.3 Mb

     Self-consistent Calculation

     iteration #  1     ecut=    60.00 Ry     beta=0.30
     Davidson diagonalization with overlap
     ethr =  1.00E-02,  avg # of iterations =  5.9

     negative rho (up, down):  0.722E-07 0.000E+00

     total cpu time spent up to now is     57.58 secs

     total energy              =     -22.81399325 Ry
     Harris-Foulkes estimate   =     -22.88460095 Ry
     estimated scf accuracy    <       0.20823179 Ry

     iteration #  2     ecut=    60.00 Ry     beta=0.30
     Davidson diagonalization with overlap
     ethr =  2.60E-03,  avg # of iterations =  1.3

     negative rho (up, down):  0.907E-06 0.000E+00

     total cpu time spent up to now is     75.51 secs

     total energy              =     -22.78049100 Ry
     Harris-Foulkes estimate   =     -22.81974416 Ry
     estimated scf accuracy    <       0.06895935 Ry

     iteration #  3     ecut=    60.00 Ry     beta=0.30
     Davidson diagonalization with overlap
     ethr =  8.62E-04,  avg # of iterations =  3.2

     negative rho (up, down):  0.228E-05 0.000E+00

     total cpu time spent up to now is     96.56 secs

     total energy              =     -22.79117157 Ry
     Harris-Foulkes estimate   =     -22.79120612 Ry
     estimated scf accuracy    <       0.00120667 Ry

     iteration #  4     ecut=    60.00 Ry     beta=0.30
     Davidson diagonalization with overlap
     ethr =  1.51E-05,  avg # of iterations =  3.5

     negative rho (up, down):  0.288E-05 0.000E+00

     total cpu time spent up to now is    121.20 secs

     total energy              =     -22.79119779 Ry
     Harris-Foulkes estimate   =     -22.79142486 Ry
     estimated scf accuracy    <       0.00038407 Ry

     iteration #  5     ecut=    60.00 Ry     beta=0.30
     Davidson diagonalization with overlap
     ethr =  4.80E-06,  avg # of iterations =  2.2

     negative rho (up, down):  0.317E-05 0.000E+00

     total cpu time spent up to now is    140.50 secs

     total energy              =     -22.79125846 Ry
     Harris-Foulkes estimate   =     -22.79125701 Ry
     estimated scf accuracy    <       0.00000105 Ry

     iteration #  6     ecut=    60.00 Ry     beta=0.30
     Davidson diagonalization with overlap
     ethr =  1.32E-08,  avg # of iterations =  2.8

     negative rho (up, down):  0.318E-05 0.000E+00

     total cpu time spent up to now is    161.27 secs

     total energy              =     -22.79125884 Ry
     Harris-Foulkes estimate   =     -22.79125945 Ry
     estimated scf accuracy    <       0.00000115 Ry

     iteration #  7     ecut=    60.00 Ry     beta=0.30
     Davidson diagonalization with overlap
     ethr =  1.32E-08,  avg # of iterations =  1.4

     negative rho (up, down):  0.325E-05 0.000E+00

     total cpu time spent up to now is    178.81 secs

     End of self-consistent calculation

          k = 0.0000 0.0000 0.0000 (  2759 PWs)   bands (ev):

   -19.9856  -8.0949  -3.5317  -3.4919   2.6736   4.2639   5.4863   7.8535
     7.9051  10.2126  11.0410  12.2542

          k = 0.0000 0.0722 0.0000 (  2758 PWs)   bands (ev):

   -19.8931  -7.9840  -3.8954  -3.6975   2.7999   4.3891   5.6105   7.9407
     8.2662  10.3305  10.7188  12.4155

          k = 0.0000 0.1443 0.0000 (  2786 PWs)   bands (ev):

   -19.6162  -7.6531  -4.8964  -4.2080   3.1786   4.7639   5.9834   7.9836
     9.3721   9.8129  10.6843  12.5267

          k = 0.0000 0.2165 0.0000 (  2782 PWs)   bands (ev):

   -19.1567  -7.1073  -6.2972  -4.8631   3.8097   5.3845   6.6018   7.8960
     8.4722  10.9996  11.2652  13.1311

          k = 0.0000 0.2887 0.0000 (  2772 PWs)   bands (ev):

   -18.5176  -7.8937  -6.3578  -5.5224   4.6916   6.2012   6.9050   7.4002
     7.7667  12.0602  12.9630  13.9667

          k = 0.0000 0.3608 0.0000 (  2766 PWs)   bands (ev):

   -17.7045  -9.5480  -6.0962  -5.4270   5.0670   5.8205   7.4087   7.4115
     8.6446  13.0341  15.0121  15.0873

          k = 0.0000 0.4330 0.0000 (  2788 PWs)   bands (ev):

   -16.7271 -11.1703  -6.5331  -4.3671   3.3634   7.0910   7.3262   8.7485
    10.0005  14.0629  14.6280  16.1660

          k = 0.0000 0.5052 0.0000 (  2782 PWs)   bands (ev):

   -15.6140 -12.6859  -6.8046  -3.3296   1.9082   7.0677   8.8344  10.3117
    11.5990  12.6883  13.8568  15.5662

          k = 0.0000-0.5774 0.0000 (  2788 PWs)   bands (ev):

   -14.7173 -13.7193  -6.8966  -2.8033   1.2378   7.0241  10.6026  10.7427
    11.8714  12.2759  13.3798  13.4606

          k = 0.0625 0.1083 0.0000 (  2773 PWs)   bands (ev):

   -19.7084  -7.7632  -4.5234  -4.1111   3.0524   4.6391   5.8593   8.0723
     8.9167  10.1102  10.5649  12.7782

          k = 0.0625 0.1804 0.0000 (  2775 PWs)   bands (ev):

   -19.3401  -7.3248  -5.6600  -4.7596   3.5575   5.1374   6.3571   8.2281
     9.0024   9.9972  11.0284  12.8964

          k = 0.0625 0.2526 0.0000 (  2776 PWs)   bands (ev):

   -18.7908  -7.1106  -6.6765  -5.4661   4.3144   5.8753   7.0974   7.5546
     8.1695  11.5151  11.7092  13.6215

          k = 0.0625 0.3248 0.0000 (  2779 PWs)   bands (ev):

   -18.0647  -8.7085  -6.1105  -5.8339   5.3210   5.8477   6.9166   7.8502
     8.2184  12.5769  13.2442  14.5792

          k = 0.0625 0.3969 0.0000 (  2779 PWs)   bands (ev):

   -17.1689 -10.3326  -6.6303  -4.8299   4.1550   6.5709   7.7177   8.1235
     9.3848  13.5426  14.6000  15.7501

          k = 0.0625 0.4691 0.0000 (  2777 PWs)   bands (ev):

   -16.1193 -11.8987  -6.9913  -3.7491   2.5562   7.5191   8.1036   9.5691
    10.8625  13.7167  14.1373  15.6168

          k = 0.0625 0.5413 0.0000 (  2787 PWs)   bands (ev):

   -14.9912 -13.2933  -7.1756  -2.8683   1.4015   7.4452   9.8144  11.1843
    11.7415  12.5745  12.9990  14.4601

          k = 0.1250 0.2165 0.0000 (  2767 PWs)   bands (ev):

   -18.8821  -6.7836  -6.6779  -5.6308   4.1888   5.7570   6.9814   7.8126
     8.7975  10.4807  11.5837  13.5054

          k = 0.1250 0.2887 0.0000 (  2780 PWs)   bands (ev):

   -18.2457  -7.9808  -6.4733  -6.0398   5.0711   6.3490   6.6401   7.8497
     9.0564  11.4490  12.3143  14.3433

          k = 0.1250 0.3608 0.0000 (  2776 PWs)   bands (ev):

   -17.4366  -9.4729  -7.1401  -5.1154   4.7846   6.2014   7.7214   8.7994
     9.1198  12.8787  13.1065  15.4003

          k = 0.1250 0.4330 0.0000 (  2777 PWs)   bands (ev):

   -16.4659 -11.0098  -7.6177  -4.0587   3.1954   7.5721   8.7367   9.0298
    10.3722  13.5995  13.9285  16.0600

          k = 0.1250 0.5052 0.0000 (  2779 PWs)   bands (ev):

   -15.3633 -12.4783  -7.9057  -3.0115   1.8003   8.5848   9.2075  10.4845
    11.9524  12.9136  13.3395  15.4592

          k = 0.1250 0.5774 0.0000 (  2790 PWs)   bands (ev):

   -14.4803 -13.4874  -8.0017  -2.4652   1.1327   8.5504  10.9306  11.0928
    11.5805  12.6547  13.6740  13.7947

          k = 0.1875 0.3248 0.0000 (  2778 PWs)   bands (ev):

   -17.5262  -8.9583  -7.5596  -5.2122   5.0391   6.0771   7.5771   8.8472
    10.1192  11.4813  12.9344  15.2818

          k = 0.1875 0.3969 0.0000 (  2776 PWs)   bands (ev):

   -16.6413 -10.1860  -8.3631  -4.2219   3.6167   7.3275   8.7345  10.0348
    10.4375  12.4718  13.1514  16.0487

          k = 0.1875 0.4691 0.0000 (  2766 PWs)   bands (ev):

   -15.6088 -11.5638  -8.8384  -3.1399   2.2144   8.8109   9.9874  10.2251
    11.5901  12.9234  13.3738  15.9020

          k = 0.1875 0.5413 0.0000 (  2774 PWs)   bands (ev):

   -14.5073 -12.8688  -9.0603  -2.2134   1.1155  10.1089  10.5322  10.9354
    12.3087  13.0076  13.2506  14.8845

          k = 0.2500 0.4330 0.0000 (  2770 PWs)   bands (ev):

   -15.6929 -10.9759  -9.4462  -3.1908   2.3960   8.6891   9.7974  11.3760
    11.9112  12.2603  12.6924  16.6796

          k = 0.2500 0.5052 0.0000 (  2777 PWs)   bands (ev):

   -14.6259 -12.0317 -10.0499  -2.1148   1.2047  10.2573  10.4346  11.8418
    12.8465  12.9192  13.1599  15.5135

          k = 0.2500 0.5774 0.0000 (  2772 PWs)   bands (ev):

   -13.7710 -12.9198 -10.2198  -1.4595   0.5092  10.5172  11.7082  11.8225
    12.1492  13.7882  14.3862  14.7144

          k = 0.3125 0.5413 0.0000 (  2770 PWs)   bands (ev):

   -13.5977 -12.5967 -10.8841  -1.0638   0.1830  10.2653  11.7855  12.6038
    12.9986  14.0943  14.4485  15.2091

          k =-0.0625 0.0361 0.0000 (  2758 PWs)   bands (ev):

   -19.8931  -7.9840  -3.8947  -3.6982   2.7999   4.3891   5.6105   7.9396
     8.2674  10.3305  10.7189  12.1564

          k = 0.0625 0.0361 0.0000 (  2758 PWs)   bands (ev):

   -19.8931  -7.9841  -3.8658  -3.7276   2.7998   4.3891   5.6105   7.9070
     8.3023  10.3304  10.7198  12.1566

          k =-0.1250 0.0722 0.0000 (  2786 PWs)   bands (ev):

   -19.6162  -7.6531  -4.8957  -4.2087   3.1786   4.7639   5.9834   7.9828
     9.3731   9.8129  10.6843  12.5267

          k = 0.1250 0.0722 0.0000 (  2786 PWs)   bands (ev):

   -19.6161  -7.6534  -4.8725  -4.2335   3.1786   4.7638   5.9832   7.9576
     9.4057   9.8159  10.6843  12.5261

          k =-0.1875 0.1083 0.0000 (  2782 PWs)   bands (ev):

   -19.1567  -7.1073  -6.2966  -4.8637   3.8097   5.3844   6.6018   7.8954
     8.4723  11.0005  11.2652  13.1311

          k = 0.1875 0.1083 0.0000 (  2782 PWs)   bands (ev):

   -19.1564  -7.1081  -6.2783  -4.8847   3.8096   5.3841   6.6014   7.8784
     8.4781  11.0297  11.2651  13.1307

          k =-0.2500 0.1443 0.0000 (  2772 PWs)   bands (ev):

   -18.5176  -7.8933  -6.3578  -5.5229   4.6916   6.2012   6.9053   7.4001
     7.7664  12.0601  12.9638  13.9667

          k = 0.2500 0.1443 0.0000 (  2772 PWs)   bands (ev):

   -18.5173  -7.8789  -6.3593  -5.5409   4.6916   6.1997   6.9148   7.3964
     7.7582  12.0597  12.9902  13.9659

          k =-0.3125 0.1804 0.0000 (  2766 PWs)   bands (ev):

   -17.7044  -9.5477  -6.0967  -5.4271   5.0673   5.8205   7.4088   7.4113
     8.6446  13.0341  15.0121  15.0881

          k = 0.3125 0.1804 0.0000 (  2766 PWs)   bands (ev):

   -17.7039  -9.5362  -6.1126  -5.4300   5.0768   5.8205   7.4028   7.4097
     8.6446  13.0331  15.0097  15.1126

          k =-0.3750 0.2165 0.0000 (  2788 PWs)   bands (ev):

   -16.7271 -11.1700  -6.5335  -4.3672   3.3638   7.0908   7.3261   8.7485
    10.0005  14.0628  14.6280  17.1522

          k = 0.3750 0.2165 0.0000 (  2788 PWs)   bands (ev):

   -16.7266 -11.1602  -6.5480  -4.3725   3.3770   7.0872   7.3231   8.7488
    10.0007  14.0603  14.6296  17.1760

          k =-0.4375 0.2526 0.0000 (  2782 PWs)   bands (ev):

   -15.6141 -12.6856  -6.8050  -3.3299   1.9087   7.0675   8.8345  10.3117
    11.5990  12.6883  13.8567  15.5659

          k = 0.4375 0.2526 0.0000 (  2782 PWs)   bands (ev):

   -15.6147 -12.6758  -6.8187  -3.3396   1.9269   7.0618   8.8347  10.3116
    11.5991  12.6897  13.8541  15.5627

          k = 0.5000-0.2887 0.0000 (  2788 PWs)   bands (ev):

   -14.7175 -13.7188  -6.8970  -2.8037   1.2385   7.0239  10.6025  10.7428
    11.8714  12.2759  13.3798  13.4607

          k =-0.5000-0.2887 0.0000 (  2788 PWs)   bands (ev):

   -14.7249 -13.7026  -6.9103  -2.8176   1.2609   7.0185  10.6015  10.7450
    11.8709  12.2749  13.3786  13.4632

          k =-0.0625 0.1083 0.0000 (  2773 PWs)   bands (ev):

   -19.7084  -7.7630  -4.5492  -4.0842   3.0524   4.6391   5.8595   8.1116
     8.8717  10.1077  10.5651  12.7819

          k = 0.1250 0.0000 0.0000 (  2773 PWs)   bands (ev):

   -19.7084  -7.7632  -4.5226  -4.1119   3.0524   4.6391   5.8593   8.0712
     8.9180  10.1102  10.5649  12.7781

          k =-0.0625 0.1804 0.0000 (  2775 PWs)   bands (ev):

   -19.3402  -7.3244  -5.6736  -4.7450   3.5576   5.1375   6.3574   8.2510
     8.9990   9.9685  11.0289  12.8962

          k =-0.1250 0.1443 0.0000 (  2775 PWs)   bands (ev):

   -19.3402  -7.3244  -5.6732  -4.7454   3.5576   5.1375   6.3574   8.2506
     8.9990   9.9690  11.0289  12.8962

          k = 0.1875 0.0361 0.0000 (  2775 PWs)   bands (ev):

   -19.3401  -7.3250  -5.6475  -4.7732   3.5575   5.1373   6.3570   8.2156
     9.0046  10.0143  11.0284  12.8962

          k =-0.1250-0.1443 0.0000 (  2775 PWs)   bands (ev):

   -19.3401  -7.3250  -5.6479  -4.7728   3.5575   5.1373   6.3570   8.2162
     9.0045  10.0135  11.0285  12.8963

          k = 0.1875-0.0361 0.0000 (  2775 PWs)   bands (ev):

   -19.3401  -7.3248  -5.6592  -4.7604   3.5575   5.1374   6.3571   8.2271
     9.0025   9.9985  11.0284  12.8964

          k =-0.0625 0.2526 0.0000 (  2776 PWs)   bands (ev):

   -18.7910  -7.1169  -6.6760  -5.4590   4.3145   5.8754   7.0980   7.5511
     8.1802  11.5011  11.7099  13.6213

          k =-0.1875 0.1804 0.0000 (  2776 PWs)   bands (ev):

   -18.7910  -7.1165  -6.6760  -5.4595   4.3145   5.8754   7.0980   7.5512
     8.1799  11.5017  11.7099  13.6213

          k = 0.2500 0.0722 0.0000 (  2776 PWs)   bands (ev):

   -18.7906  -7.0971  -6.6773  -5.4819   4.3144   5.8747   7.0971   7.5599
     8.1584  11.5335  11.7091  13.6214

          k =-0.1875-0.1804 0.0000 (  2776 PWs)   bands (ev):

   -18.7906  -7.0973  -6.6773  -5.4817   4.3144   5.8747   7.0971   7.5598
     8.1588  11.5331  11.7091  13.6214

          k = 0.2500-0.0722 0.0000 (  2776 PWs)   bands (ev):

   -18.7908  -7.1100  -6.6765  -5.4667   4.3144   5.8753   7.0973   7.5549
     8.1689  11.5160  11.7091  13.6215

          k =-0.0625 0.3248 0.0000 (  2779 PWs)   bands (ev):

   -18.0649  -8.7114  -6.1072  -5.8332   5.3211   5.8442   6.9170   7.8556
     8.2186  12.5782  13.2401  14.5788

          k =-0.2500 0.2165 0.0000 (  2779 PWs)   bands (ev):

   -18.0648  -8.7111  -6.1076  -5.8332   5.3211   5.8444   6.9170   7.8555
     8.2186  12.5781  13.2406  14.5788

          k = 0.3125 0.1083 0.0000 (  2779 PWs)   bands (ev):

   -18.0643  -8.6966  -6.1258  -5.8356   5.3211   5.8533   6.9185   7.8438
     8.2160  12.5766  13.2592  14.5796

          k =-0.2500-0.2165 0.0000 (  2779 PWs)   bands (ev):

   -18.0643  -8.6967  -6.1257  -5.8356   5.3211   5.8532   6.9185   7.8440
     8.2160  12.5766  13.2591  14.5796

          k = 0.3125-0.1083 0.0000 (  2779 PWs)   bands (ev):

   -18.0647  -8.7081  -6.1111  -5.8340   5.3210   5.8479   6.9166   7.8498
     8.2183  12.5769  13.2447  14.5792

          k =-0.0625 0.3969 0.0000 (  2779 PWs)   bands (ev):

   -17.1691 -10.3339  -6.6286  -4.8291   4.1520   6.5712   7.7207   8.1240
     9.3845  13.5446  14.6023  15.7498

          k =-0.3125 0.2526 0.0000 (  2779 PWs)   bands (ev):

   -17.1691 -10.3336  -6.6290  -4.8292   4.1523   6.5712   7.7205   8.1240
     9.3845  13.5445  14.6025  15.7497

          k = 0.3750 0.1443 0.0000 (  2779 PWs)   bands (ev):

   -17.1685 -10.3223  -6.6446  -4.8334   4.1650   6.5710   7.7108   8.1241
     9.3848  13.5414  14.6068  15.7516

          k =-0.3125-0.2526 0.0000 (  2779 PWs)   bands (ev):

   -17.1685 -10.3224  -6.6445  -4.8333   4.1649   6.5710   7.7109   8.1241
     9.3848  13.5414  14.6069  15.7516

          k = 0.3750-0.1443 0.0000 (  2779 PWs)   bands (ev):

   -17.1689 -10.3323  -6.6307  -4.8301   4.1553   6.5709   7.7174   8.1235
     9.3848  13.5426  14.6001  15.7502

          k =-0.0625 0.4691 0.0000 (  2777 PWs)   bands (ev):

   -16.1194 -11.8991  -6.9906  -3.7482   2.5541   7.5212   8.1030   9.5698
    10.8622  13.7175  14.1381  15.6165

          k =-0.3750 0.2887 0.0000 (  2777 PWs)   bands (ev):

   -16.1194 -11.8989  -6.9909  -3.7484   2.5545   7.5210   8.1030   9.5698
    10.8622  13.7176  14.1380  15.6165

          k = 0.4375 0.1804 0.0000 (  2777 PWs)   bands (ev):

   -16.1192 -11.8891  -7.0049  -3.7559   2.5708   7.5135   8.1033   9.5694
    10.8625  13.7189  14.1328  15.6157

          k =-0.3750-0.2887 0.0000 (  2777 PWs)   bands (ev):

   -16.1192 -11.8891  -7.0049  -3.7559   2.5707   7.5135   8.1033   9.5694
    10.8625  13.7189  14.1328  15.6156

          k = 0.4375-0.1804 0.0000 (  2777 PWs)   bands (ev):

   -16.1193 -11.8984  -6.9917  -3.7493   2.5567   7.5189   8.1036   9.5691
    10.8625  13.7168  14.1371  15.6168

          k =-0.0625 0.5413 0.0000 (  2787 PWs)   bands (ev):

   -14.9913 -13.2934  -7.1754  -2.8677   1.4006   7.4457   9.8142  11.1853
    11.7418  12.5743  12.9976  14.4605

          k =-0.4375 0.3248 0.0000 (  2787 PWs)   bands (ev):

   -14.9914 -13.2931  -7.1758  -2.8681   1.4012   7.4456   9.8142  11.1853
    11.7418  12.5743  12.9976  14.4606

          k = 0.5000 0.2165 0.0000 (  2787 PWs)   bands (ev):

   -14.9944 -13.2810  -7.1890  -2.8807   1.4225   7.4394   9.8146  11.1841
    11.7424  12.5750  12.9963  14.4611

          k =-0.4375-0.3248 0.0000 (  2787 PWs)   bands (ev):

   -14.9944 -13.2810  -7.1890  -2.8807   1.4225   7.4394   9.8146  11.1841
    11.7424  12.5750  12.9963  14.4611

          k = 0.5000-0.2165 0.0000 (  2787 PWs)   bands (ev):

   -14.9913 -13.2930  -7.1760  -2.8686   1.4022   7.4450   9.8144  11.1843
    11.7415  12.5746  12.9990  14.4601

          k =-0.1250 0.2165 0.0000 (  2767 PWs)   bands (ev):

   -18.8824  -6.7826  -6.6989  -5.6080   4.1889   5.7573   6.9820   7.8059
     8.8378  10.4345  11.5847  13.5051

          k = 0.2500 0.0000 0.0000 (  2767 PWs)   bands (ev):

   -18.8821  -6.7836  -6.6773  -5.6315   4.1888   5.7570   6.9814   7.8128
     8.7964  10.4820  11.5837  13.5054

          k =-0.1250 0.2887 0.0000 (  2780 PWs)   bands (ev):

   -18.2460  -7.9926  -6.4601  -6.0385   5.0712   6.3418   6.6408   7.8507
     9.0790  11.4257  12.3163  14.3428

          k =-0.1875 0.2526 0.0000 (  2780 PWs)   bands (ev):

   -18.2460  -7.9924  -6.4603  -6.0386   5.0712   6.3418   6.6409   7.8507
     9.0788  11.4260  12.3163  14.3429

          k = 0.3125 0.0361 0.0000 (  2780 PWs)   bands (ev):

   -18.2455  -7.9726  -6.4827  -6.0404   5.0711   6.3495   6.6425   7.8497
     9.0485  11.4590  12.3141  14.3435

          k =-0.1875-0.2526 0.0000 (  2780 PWs)   bands (ev):

   -18.2455  -7.9730  -6.4823  -6.0404   5.0711   6.3493   6.6426   7.8497
     9.0492  11.4583  12.3142  14.3434

          k = 0.3125-0.0361 0.0000 (  2780 PWs)   bands (ev):

   -18.2456  -7.9802  -6.4739  -6.0399   5.0711   6.3492   6.6402   7.8497
     9.0556  11.4499  12.3142  14.3433

          k =-0.1250 0.3608 0.0000 (  2776 PWs)   bands (ev):

   -17.4370  -9.4783  -7.1337  -5.1137   4.7781   6.2016   7.7223   8.8084
     9.1210  12.8735  13.1101  15.3996

          k =-0.2500 0.2887 0.0000 (  2776 PWs)   bands (ev):

   -17.4370  -9.4780  -7.1341  -5.1137   4.7783   6.2016   7.7223   8.8083
     9.1209  12.8738  13.1101  15.3996

          k = 0.3750 0.0722 0.0000 (  2776 PWs)   bands (ev):

   -17.4364  -9.4633  -7.1520  -5.1171   4.7902   6.2015   7.7219   8.7955
     9.1161  12.8880  13.1057  15.4009

          k =-0.2500-0.2887 0.0000 (  2776 PWs)   bands (ev):

   -17.4364  -9.4635  -7.1519  -5.1170   4.7900   6.2015   7.7219   8.7958
     9.1161  12.8879  13.1058  15.4009

          k = 0.3750-0.0722 0.0000 (  2776 PWs)   bands (ev):

   -17.4366  -9.4725  -7.1407  -5.1155   4.7850   6.2014   7.7214   8.7990
     9.1197  12.8791  13.1064  15.4003

          k =-0.1250 0.4330 0.0000 (  2777 PWs)   bands (ev):

   -16.4662 -11.0120  -7.6147  -4.0567   3.1901   7.5725   8.7414   9.0311
    10.3715  13.6031  13.9309  16.0565

          k =-0.3125 0.3248 0.0000 (  2777 PWs)   bands (ev):

   -16.4662 -11.0117  -7.6151  -4.0568   3.1903   7.5725   8.7412   9.0311
    10.3715  13.6030  13.9311  16.3738

          k = 0.4375 0.1083 0.0000 (  2777 PWs)   bands (ev):

   -16.4657 -11.0004  -7.6299  -4.0626   3.2051   7.5723   8.7301   9.0301
    10.3719  13.5959  13.9339  16.0563

          k =-0.3125-0.3248 0.0000 (  2777 PWs)   bands (ev):

   -16.4657 -11.0005  -7.6298  -4.0626   3.2049   7.5723   8.7302   9.0301
    10.3719  13.5960  13.9340  16.0562

          k = 0.4375-0.1083 0.0000 (  2777 PWs)   bands (ev):

   -16.4658 -11.0094  -7.6181  -4.0588   3.1958   7.5721   8.7363   9.0298
    10.3722  13.5993  13.9285  16.0600

          k =-0.1250 0.5052 0.0000 (  2779 PWs)   bands (ev):

   -15.3635 -12.4790  -7.9045  -3.0096   1.7968   8.5878   9.2064  10.4865
    11.9518  12.9148  13.3379  15.4610

          k =-0.3750 0.3608 0.0000 (  2779 PWs)   bands (ev):

   -15.3636 -12.4787  -7.9048  -3.0099   1.7972   8.5876   9.2063  10.4865
    11.9518  12.9148  13.3378  15.4610

          k = 0.5000 0.1443 0.0000 (  2779 PWs)   bands (ev):

   -15.3642 -12.4682  -7.9179  -3.0201   1.8161   8.5792   9.2070  10.4843
    11.9520  12.9159  13.3336  15.4601

          k =-0.3750-0.3608 0.0000 (  2779 PWs)   bands (ev):

   -15.3642 -12.4682  -7.9178  -3.0200   1.8160   8.5793   9.2069  10.4843
    11.9520  12.9159  13.3335  15.4602

          k = 0.5000-0.1443 0.0000 (  2779 PWs)   bands (ev):

   -15.3633 -12.4779  -7.9060  -3.0118   1.8009   8.5845   9.2075  10.4845
    11.9524  12.9136  13.3394  15.4591

          k =-0.4375 0.3969 0.0000 (  2790 PWs)   bands (ev):

   -14.4805 -13.4869  -8.0020  -2.4656   1.1333   8.5502  10.9306  11.0928
    11.5804  12.6547  13.6740  13.7948

          k = 0.5625 0.1804 0.0000 (  2790 PWs)   bands (ev):

   -14.4883 -13.4702  -8.0142  -2.4793   1.1549   8.5437  10.9291  11.0953
    11.5769  12.6537  13.6722  13.7976

          k =-0.1875 0.3248 0.0000 (  2778 PWs)   bands (ev):

   -17.5267  -8.9750  -7.5410  -5.2098   5.0292   6.0772   7.5780   8.8485
    10.1593  11.4438  12.9389  15.2809

          k = 0.3750 0.0000 0.0000 (  2778 PWs)   bands (ev):

   -17.5262  -8.9578  -7.5602  -5.2123   5.0394   6.0771   7.5770   8.8472
    10.1180  11.4823  12.9343  15.2818

          k =-0.1875 0.3969 0.0000 (  2776 PWs)   bands (ev):

   -16.6418 -10.1950  -8.3526  -4.2188   3.6076   7.3276   8.7363  10.0409
    10.4472  12.4637  13.1573  16.0457

          k =-0.2500 0.3608 0.0000 (  2776 PWs)   bands (ev):

   -16.6418 -10.1948  -8.3528  -4.2188   3.6077   7.3276   8.7363  10.0409
    10.4470  12.4639  13.1572  16.0456

          k = 0.4375 0.0361 0.0000 (  2776 PWs)   bands (ev):

   -16.6412 -10.1794  -8.3707  -4.2232   3.6204   7.3276   8.7345  10.0345
    10.4306  12.4787  13.1499  16.0471

          k =-0.2500-0.3608 0.0000 (  2776 PWs)   bands (ev):

   -16.6412 -10.1797  -8.3704  -4.2231   3.6201   7.3276   8.7346  10.0347
    10.4309  12.4785  13.1500  16.0470

          k = 0.4375-0.0361 0.0000 (  2776 PWs)   bands (ev):

   -16.6413 -10.1855  -8.3636  -4.2220   3.6171   7.3275   8.7344  10.0346
    10.4371  12.4722  13.1512  16.0487

          k =-0.1875 0.4691 0.0000 (  2766 PWs)   bands (ev):

   -15.6092 -11.5674  -8.8339  -3.1364   2.2071   8.8113   9.9905  10.2305
    11.5886  12.9245  13.3774  15.9027

          k =-0.3125 0.3969 0.0000 (  2766 PWs)   bands (ev):

   -15.6092 -11.5672  -8.8342  -3.1366   2.2073   8.8113   9.9905  10.2303
    11.5886  12.9243  13.3776  15.9027

          k = 0.5000 0.0722 0.0000 (  2766 PWs)   bands (ev):

   -15.6091 -11.5551  -8.8484  -3.1443   2.2231   8.8112   9.9870  10.2187
    11.5891  12.9194  13.3786  15.9023

          k =-0.3125-0.3969 0.0000 (  2766 PWs)   bands (ev):

   -15.6091 -11.5552  -8.8483  -3.1442   2.2229   8.8112   9.9871  10.2189
    11.5891  12.9194  13.3787  15.9023

          k = 0.5000-0.0722 0.0000 (  2766 PWs)   bands (ev):

   -15.6089 -11.5634  -8.8388  -3.1401   2.2149   8.8109   9.9873  10.2248
    11.5901  12.9233  13.3738  15.9020

          k =-0.1875 0.5413 0.0000 (  2774 PWs)   bands (ev):

   -14.5073 -12.8699  -9.0591  -2.2111   1.1119  10.1124  10.5292  10.9382
    12.3106  13.0046  13.2493  14.8870

          k =-0.3750 0.4330 0.0000 (  2774 PWs)   bands (ev):

   -14.5074 -12.8695  -9.0594  -2.2115   1.1124  10.1123  10.5291  10.9381
    12.3106  13.0045  13.2493  14.8870

          k = 0.5625 0.1083 0.0000 (  2774 PWs)   bands (ev):

   -14.5109 -12.8561  -9.0714  -2.2244   1.1326  10.1042  10.5301  10.9320
    12.3101  13.0042  13.2504  14.8856

          k =-0.3750-0.4330 0.0000 (  2774 PWs)   bands (ev):

   -14.5109 -12.8561  -9.0714  -2.2243   1.1325  10.1043  10.5301  10.9321
    12.3102  13.0042  13.2504  14.8857

          k = 0.5625-0.1083 0.0000 (  2774 PWs)   bands (ev):

   -14.5074 -12.8684  -9.0607  -2.2137   1.1161  10.1087  10.5323  10.9352
    12.3087  13.0076  13.2506  14.8845

          k =-0.2500 0.4330 0.0000 (  2770 PWs)   bands (ev):

   -15.6932 -10.9891  -9.4315  -3.1854   2.3842   8.6892   9.8013  11.3841
    11.9420  12.2319  12.6956  16.6778

          k = 0.5000 0.0000 0.0000 (  2770 PWs)   bands (ev):

   -15.6929 -10.9755  -9.4466  -3.1910   2.3963   8.6891   9.7973  11.3758
    11.9103  12.2611  12.6923  16.6798

          k =-0.2500 0.5052 0.0000 (  2777 PWs)   bands (ev):

   -14.6256 -12.0381 -10.0432  -2.1091   1.1955  10.2577  10.4395  11.8437
    12.8473  12.9172  13.1644  15.5151

          k =-0.3125 0.4691 0.0000 (  2777 PWs)   bands (ev):

   -14.6256 -12.0379 -10.0434  -2.1092   1.1957  10.2577  10.4394  11.8436
    12.8472  12.9171  13.1646  15.5151

          k = 0.5625 0.0361 0.0000 (  2777 PWs)   bands (ev):

   -14.6268 -12.0243 -10.0570  -2.1190   1.2113  10.2576  10.4331  11.8366
    12.8432  12.9179  13.1659  15.5125

          k =-0.3125-0.4691 0.0000 (  2777 PWs)   bands (ev):

   -14.6268 -12.0245 -10.0568  -2.1188   1.2111  10.2576  10.4332  11.8367
    12.8432  12.9178  13.1660  15.5125

          k = 0.5625-0.0361 0.0000 (  2777 PWs)   bands (ev):

   -14.6260 -12.0312 -10.0503  -2.1151   1.2052  10.2573  10.4344  11.8416
    12.8464  12.9192  13.1600  15.5135

          k =-0.3750 0.5052 0.0000 (  2772 PWs)   bands (ev):

   -13.7713 -12.9193 -10.2201  -1.4598   0.5097  10.5170  11.7081  11.8224
    12.1492  13.7883  14.3861  14.7145

          k = 0.6250 0.0722 0.0000 (  2772 PWs)   bands (ev):

   -13.7801 -12.9013 -10.2303  -1.4732   0.5274  10.5126  11.7083  11.8185
    12.1481  13.7873  14.3809  14.7187

          k =-0.3125 0.5413 0.0000 (  2770 PWs)   bands (ev):

   -13.5937 -12.6074 -10.8771  -1.0531   0.1701  10.2680  11.7872  12.5891
    13.0179  14.0932  14.4464  15.2011

          k = 0.6250 0.0000 0.0000 (  2770 PWs)   bands (ev):

   -13.5979 -12.5964 -10.8843  -1.0641   0.1834  10.2652  11.7854  12.6042
    12.9980  14.0944  14.4485  15.2093

     the Fermi energy is    -0.4408 ev

!    total energy              =     -22.79125900 Ry
     Harris-Foulkes estimate   =     -22.79125899 Ry
     estimated scf accuracy    <          2.0E-09 Ry

     The total energy is the sum of the following terms:

     one-electron contribution =     -91.13165843 Ry
     hartree contribution      =      47.31387683 Ry
     xc contribution           =      -7.02588615 Ry
     ewald contribution        =      28.05241174 Ry
     smearing contrib. (-TS)   =      -0.00000298 Ry

     convergence has been achieved in   7 iterations

     Writing output data file graphene.save

     init_run     :      7.25s CPU     18.14s WALL (       1 calls)
     electrons    :    153.62s CPU    160.29s WALL (       1 calls)

     Called by init_run:
     wfcinit      :      6.70s CPU     17.46s WALL (       1 calls)
     potinit      :      0.16s CPU      0.16s WALL (       1 calls)

     Called by electrons:
     c_bands      :    130.40s CPU    135.45s WALL (       7 calls)
     sum_band     :     21.85s CPU     22.21s WALL (       7 calls)
     v_of_rho     :      0.76s CPU      0.79s WALL (       8 calls)
     newd         :      0.57s CPU      0.58s WALL (       8 calls)
     mix_rho      :      0.07s CPU      0.08s WALL (       7 calls)

     Called by c_bands:
     init_us_2    :      2.56s CPU      2.84s WALL (    1950 calls)
     cegterg      :    126.09s CPU    130.45s WALL (     910 calls)

     Called by *egterg:
     h_psi        :    101.77s CPU    103.98s WALL (    3671 calls)
     s_psi        :      4.13s CPU      3.85s WALL (    3671 calls)
     g_psi        :      0.95s CPU      1.06s WALL (    2631 calls)
     cdiaghg      :      2.47s CPU      2.61s WALL (    3541 calls)

     Called by h_psi:
     add_vuspsi   :      3.74s CPU      4.05s WALL (    3671 calls)

     General routines
     calbec       :      5.78s CPU      5.79s WALL (    4581 calls)
     cft3s        :     97.75s CPU     99.90s WALL (   70886 calls)
     interpolate  :      0.10s CPU      0.12s WALL (      15 calls)
     davcio       :      1.96s CPU     12.10s WALL (    2860 calls)

     Parallel routines

     PWSCF        :  2m41.47s CPU time,     3m 9.67s WALL time


   This run was terminated on:  17: 2:14   7Feb2011            

=------------------------------------------------------------------------------=
   JOB DONE.
=------------------------------------------------------------------------------=
