
     Program PWSCF v.4.2.1      starts on 25Jan2011 at 13:21:53 

     This program is part of the open-source Quantum ESPRESSO suite
     for quantum simulation of materials; please acknowledge
         "P. Giannozzi et al., J. Phys.:Condens. Matter 21 395502 (2009);
          URL http://www.quantum-espresso.org", 
     in publications or presentations arising from this work. More details at
     http://www.quantum-espresso.org/wiki/index.php/Citing_Quantum-ESPRESSO

     Parallel version (MPI), running on     1 processors

     Current dimensions of program PWSCF are:
     Max number of different atomic species (ntypx) = 10
     Max number of k-points (npk) =  40000
     Max angular momentum in pseudopotentials (lmaxx) =  3
     Waiting for input...
     Message from routine iosys:
     pot_extrapolation='second_order' not available, using 'atomic'
     Message from routine iosys:
     wfc_extrapolation='second_order' not available, using 'atomic'
     file C.pbe-rrkjus.UPF: wavefunction(s)  2S 2P renormalized

     Subspace diagonalization in iterative solution of the eigenvalue problem:
     Too few procs for parallel algorithm: we need at least 4 procs per pool
     a serial algorithm will be used

     warning: symmetry operation #  2 not allowed.   fractional translation:
       0.3327597 -0.3335690  0.0000000  in crystal coordinates
     warning: symmetry operation # 13 not allowed.   fractional translation:
       0.3327597 -0.3335690  0.0000000  in crystal coordinates

     Planes per process (thick) : nr3 = 108 npp =  108 ncplane =   729
     Planes per process (smooth): nr3s=  96 npps=   96 ncplanes=   576

     Proc/  planes cols     G    planes cols    G      columns  G
     Pool       (dense grid)       (smooth grid)      (wavefct grid)
        1   108    439    31059   96    361    22233    109     3795



     bravais-lattice index     =            4
     lattice parameter (a_0)   =       4.6487  a.u.
     unit-cell volume          =     353.6698 (a.u.)^3
     number of atoms/cell      =            2
     number of atomic types    =            1
     number of electrons       =         8.00
     number of Kohn-Sham states=           12
     kinetic-energy cutoff     =      60.0000  Ry
     charge density cutoff     =     300.0000  Ry
     convergence threshold     =      1.0E-08
     mixing beta               =       0.3000
     number of iterations used =            8  plain     mixing
     Exchange-correlation      =  SLA  PW   PBE  PBE (1434)
     EXX-fraction              =        0.00
     nstep                     =           50


     celldm(1)=   4.648728  celldm(2)=   0.000000  celldm(3)=   4.065041
     celldm(4)=   0.000000  celldm(5)=   0.000000  celldm(6)=   0.000000

     crystal axes: (cart. coord. in units of a_0)
               a(1) = (  1.000000  0.000000  0.000000 )  
               a(2) = ( -0.500000  0.866025  0.000000 )  
               a(3) = (  0.000000  0.000000  4.065041 )  

     reciprocal axes: (cart. coord. in units 2 pi/a_0)
               b(1) = (  1.000000  0.577350 -0.000000 )  
               b(2) = (  0.000000  1.154701  0.000000 )  
               b(3) = (  0.000000 -0.000000  0.246000 )  


     PseudoPot. # 1 for C  read from file C.pbe-rrkjus.UPF
     Pseudo is Ultrasoft, Zval =  4.0
     Generated by new atomic code, or converted to UPF format
     Using radial grid of  627 points,  4 beta functions with: 
                l(1) =   0
                l(2) =   0
                l(3) =   1
                l(4) =   1
     Q(r) pseudized with 0 coefficients 


     atomic species   valence    mass     pseudopotential
        C              4.00    12.00000     C ( 1.00)

      2 Sym.Ops. (no inversion)


   Cartesian axes

     site n.     atom                  positions (a_0 units)
         1           C   tau(  1) = (   0.0000000  -0.0000371   0.0000000  )
         2           C   tau(  2) = (   0.5004558   0.2889163   0.0000000  )

     number of k points=   130  gaussian broad. (Ry)=  0.0200     ngauss =   0

     Number of k-points >= 100: set verbosity='high' to print them.

     G cutoff =  164.2214  (  31059 G-vectors)     FFT grid: ( 27, 27,108)
     G cutoff =  131.3771  (  22233 G-vectors)  smooth grid: ( 24, 24, 96)

     Largest allocated arrays     est. size (Mb)     dimensions
        Kohn-Sham Wavefunctions         0.51 Mb     (   2790,  12)
        NL pseudopotentials             0.68 Mb     (   2790,  16)
        Each V/rho on FFT grid          1.20 Mb     (  78732)
        Each G-vector array             0.24 Mb     (  31059)
        G-vector shells                 0.24 Mb     (  31059)
     Largest temporary arrays     est. size (Mb)     dimensions
        Auxiliary wavefunctions         2.04 Mb     (   2790,  48)
        Each subspace H/S matrix        0.04 Mb     (     48,  48)
        Each <psi_i|beta_j> matrix      0.00 Mb     (     16,  12)
        Arrays for rho mixing           9.61 Mb     (  78732,   8)

     Initial potential from superposition of free atoms

     starting charge    7.99989, renormalised to    8.00000

     negative rho (up, down):  0.136E-07 0.000E+00
     Starting wfc are    8 atomic +    4 random wfc

     total cpu time spent up to now is     13.88 secs

     per-process dynamical memory:    24.1 Mb

     Self-consistent Calculation

     iteration #  1     ecut=    60.00 Ry     beta=0.30
     Davidson diagonalization with overlap
     ethr =  1.00E-02,  avg # of iterations =  5.9

     negative rho (up, down):  0.722E-07 0.000E+00

     total cpu time spent up to now is     51.60 secs

     total energy              =     -22.81399325 Ry
     Harris-Foulkes estimate   =     -22.88460095 Ry
     estimated scf accuracy    <       0.20823179 Ry

     iteration #  2     ecut=    60.00 Ry     beta=0.30
     Davidson diagonalization with overlap
     ethr =  2.60E-03,  avg # of iterations =  1.3

     negative rho (up, down):  0.907E-06 0.000E+00

     total cpu time spent up to now is     69.93 secs

     total energy              =     -22.78049100 Ry
     Harris-Foulkes estimate   =     -22.81974416 Ry
     estimated scf accuracy    <       0.06895935 Ry

     iteration #  3     ecut=    60.00 Ry     beta=0.30
     Davidson diagonalization with overlap
     ethr =  8.62E-04,  avg # of iterations =  3.2

     negative rho (up, down):  0.228E-05 0.000E+00

     total cpu time spent up to now is     91.85 secs

     total energy              =     -22.79117157 Ry
     Harris-Foulkes estimate   =     -22.79120612 Ry
     estimated scf accuracy    <       0.00120667 Ry

     iteration #  4     ecut=    60.00 Ry     beta=0.30
     Davidson diagonalization with overlap
     ethr =  1.51E-05,  avg # of iterations =  3.5

     negative rho (up, down):  0.288E-05 0.000E+00

     total cpu time spent up to now is    117.21 secs

     total energy              =     -22.79119779 Ry
     Harris-Foulkes estimate   =     -22.79142486 Ry
     estimated scf accuracy    <       0.00038407 Ry

     iteration #  5     ecut=    60.00 Ry     beta=0.30
     Davidson diagonalization with overlap
     ethr =  4.80E-06,  avg # of iterations =  2.2

     negative rho (up, down):  0.317E-05 0.000E+00

     total cpu time spent up to now is    141.31 secs

     total energy              =     -22.79125846 Ry
     Harris-Foulkes estimate   =     -22.79125701 Ry
     estimated scf accuracy    <       0.00000105 Ry

     iteration #  6     ecut=    60.00 Ry     beta=0.30
     Davidson diagonalization with overlap
     ethr =  1.32E-08,  avg # of iterations =  2.8

     negative rho (up, down):  0.318E-05 0.000E+00

     total cpu time spent up to now is    162.87 secs

     total energy              =     -22.79125884 Ry
     Harris-Foulkes estimate   =     -22.79125945 Ry
     estimated scf accuracy    <       0.00000115 Ry

     iteration #  7     ecut=    60.00 Ry     beta=0.30
     Davidson diagonalization with overlap
     ethr =  1.32E-08,  avg # of iterations =  1.4

     negative rho (up, down):  0.325E-05 0.000E+00

     total cpu time spent up to now is    181.01 secs

     End of self-consistent calculation

          k = 0.0000 0.0000 0.0000 (  2759 PWs)   bands (ev):

   -19.9856  -8.0949  -3.5317  -3.4919   2.6736   4.2639   5.4863   7.8535
     7.9051  10.2126  11.0410  12.2542

          k = 0.0000 0.0722 0.0000 (  2758 PWs)   bands (ev):

   -19.8931  -7.9840  -3.8954  -3.6975   2.7999   4.3891   5.6105   7.9407
     8.2662  10.3305  10.7188  12.4155

          k = 0.0000 0.1443 0.0000 (  2786 PWs)   bands (ev):

   -19.6162  -7.6531  -4.8964  -4.2080   3.1786   4.7639   5.9834   7.9836
     9.3721   9.8129  10.6843  12.5267

          k = 0.0000 0.2165 0.0000 (  2782 PWs)   bands (ev):

   -19.1567  -7.1073  -6.2972  -4.8631   3.8097   5.3845   6.6018   7.8960
     8.4722  10.9996  11.2652  13.1311

          k = 0.0000 0.2887 0.0000 (  2772 PWs)   bands (ev):

   -18.5176  -7.8937  -6.3578  -5.5224   4.6916   6.2012   6.9050   7.4002
     7.7667  12.0602  12.9630  13.9667

          k = 0.0000 0.3608 0.0000 (  2766 PWs)   bands (ev):

   -17.7045  -9.5480  -6.0962  -5.4270   5.0670   5.8205   7.4087   7.4115
     8.6446  13.0341  15.0121  15.0873

          k = 0.0000 0.4330 0.0000 (  2788 PWs)   bands (ev):

   -16.7271 -11.1703  -6.5331  -4.3671   3.3634   7.0910   7.3262   8.7485
    10.0005  14.0629  14.6280  16.1660

          k = 0.0000 0.5052 0.0000 (  2782 PWs)   bands (ev):

   -15.6140 -12.6859  -6.8046  -3.3296   1.9082   7.0677   8.8344  10.3117
    11.5990  12.6883  13.8568  15.5662

          k = 0.0000-0.5774 0.0000 (  2788 PWs)   bands (ev):

   -14.7173 -13.7193  -6.8966  -2.8033   1.2378   7.0241  10.6026  10.7427
    11.8714  12.2759  13.3798  13.4606

          k = 0.0625 0.1083 0.0000 (  2773 PWs)   bands (ev):

   -19.7084  -7.7632  -4.5234  -4.1111   3.0524   4.6391   5.8593   8.0723
     8.9167  10.1102  10.5649  12.7782

          k = 0.0625 0.1804 0.0000 (  2775 PWs)   bands (ev):

   -19.3401  -7.3248  -5.6600  -4.7596   3.5575   5.1374   6.3571   8.2281
     9.0024   9.9972  11.0284  12.8964

          k = 0.0625 0.2526 0.0000 (  2776 PWs)   bands (ev):

   -18.7908  -7.1106  -6.6765  -5.4661   4.3144   5.8753   7.0974   7.5546
     8.1695  11.5151  11.7092  13.6215

          k = 0.0625 0.3248 0.0000 (  2779 PWs)   bands (ev):

   -18.0647  -8.7085  -6.1105  -5.8339   5.3210   5.8477   6.9166   7.8502
     8.2184  12.5769  13.2442  14.5792

          k = 0.0625 0.3969 0.0000 (  2779 PWs)   bands (ev):

   -17.1689 -10.3326  -6.6303  -4.8299   4.1550   6.5709   7.7177   8.1235
     9.3848  13.5426  14.6000  15.7501

          k = 0.0625 0.4691 0.0000 (  2777 PWs)   bands (ev):

   -16.1193 -11.8987  -6.9913  -3.7491   2.5562   7.5191   8.1036   9.5691
    10.8625  13.7167  14.1373  15.6168

          k = 0.0625 0.5413 0.0000 (  2787 PWs)   bands (ev):

   -14.9912 -13.2933  -7.1756  -2.8683   1.4015   7.4452   9.8144  11.1843
    11.7415  12.5745  12.9990  14.4601

          k = 0.1250 0.2165 0.0000 (  2767 PWs)   bands (ev):

   -18.8821  -6.7836  -6.6779  -5.6308   4.1888   5.7570   6.9814   7.8126
     8.7975  10.4807  11.5837  13.5054

          k = 0.1250 0.2887 0.0000 (  2780 PWs)   bands (ev):

   -18.2457  -7.9808  -6.4733  -6.0398   5.0711   6.3490   6.6401   7.8497
     9.0564  11.4490  12.3143  14.3433

          k = 0.1250 0.3608 0.0000 (  2776 PWs)   bands (ev):

   -17.4366  -9.4729  -7.1401  -5.1154   4.7846   6.2014   7.7214   8.7994
     9.1198  12.8787  13.1065  15.4003

          k = 0.1250 0.4330 0.0000 (  2777 PWs)   bands (ev):

   -16.4659 -11.0098  -7.6177  -4.0587   3.1954   7.5721   8.7367   9.0298
    10.3722  13.5995  13.9285  16.0600

          k = 0.1250 0.5052 0.0000 (  2779 PWs)   bands (ev):

   -15.3633 -12.4783  -7.9057  -3.0115   1.8003   8.5848   9.2075  10.4845
    11.9524  12.9136  13.3395  15.4592

          k = 0.1250 0.5774 0.0000 (  2790 PWs)   bands (ev):

   -14.4803 -13.4874  -8.0017  -2.4652   1.1327   8.5504  10.9306  11.0928
    11.5805  12.6547  13.6740  13.7947

          k = 0.1875 0.3248 0.0000 (  2778 PWs)   bands (ev):

   -17.5262  -8.9583  -7.5596  -5.2122   5.0391   6.0771   7.5771   8.8472
    10.1192  11.4813  12.9344  15.2818

          k = 0.1875 0.3969 0.0000 (  2776 PWs)   bands (ev):

   -16.6413 -10.1860  -8.3631  -4.2219   3.6167   7.3275   8.7345  10.0348
    10.4375  12.4718  13.1514  16.0487

          k = 0.1875 0.4691 0.0000 (  2766 PWs)   bands (ev):

   -15.6088 -11.5638  -8.8384  -3.1399   2.2144   8.8109   9.9874  10.2251
    11.5901  12.9234  13.3738  15.9020

          k = 0.1875 0.5413 0.0000 (  2774 PWs)   bands (ev):

   -14.5073 -12.8688  -9.0603  -2.2134   1.1155  10.1089  10.5322  10.9354
    12.3087  13.0076  13.2506  14.8845

          k = 0.2500 0.4330 0.0000 (  2770 PWs)   bands (ev):

   -15.6929 -10.9759  -9.4462  -3.1908   2.3960   8.6891   9.7974  11.3760
    11.9112  12.2603  12.6924  16.6796

          k = 0.2500 0.5052 0.0000 (  2777 PWs)   bands (ev):

   -14.6259 -12.0317 -10.0499  -2.1148   1.2047  10.2573  10.4346  11.8418
    12.8465  12.9192  13.1599  15.5135

          k = 0.2500 0.5774 0.0000 (  2772 PWs)   bands (ev):

   -13.7710 -12.9198 -10.2198  -1.4595   0.5092  10.5172  11.7082  11.8225
    12.1492  13.7882  14.3862  14.7144

          k = 0.3125 0.5413 0.0000 (  2770 PWs)   bands (ev):

   -13.5977 -12.5967 -10.8841  -1.0638   0.1830  10.2653  11.7855  12.6038
    12.9986  14.0943  14.4485  15.2091

          k =-0.0625 0.0361 0.0000 (  2758 PWs)   bands (ev):

   -19.8931  -7.9840  -3.8947  -3.6982   2.7999   4.3891   5.6105   7.9396
     8.2674  10.3305  10.7189  12.1564

          k = 0.0625 0.0361 0.0000 (  2758 PWs)   bands (ev):

   -19.8931  -7.9841  -3.8658  -3.7276   2.7998   4.3891   5.6105   7.9070
     8.3023  10.3304  10.7198  12.1566

          k =-0.1250 0.0722 0.0000 (  2786 PWs)   bands (ev):

   -19.6162  -7.6531  -4.8957  -4.2087   3.1786   4.7639   5.9834   7.9828
     9.3731   9.8129  10.6843  12.5267

          k = 0.1250 0.0722 0.0000 (  2786 PWs)   bands (ev):

   -19.6161  -7.6534  -4.8725  -4.2335   3.1786   4.7638   5.9832   7.9576
     9.4057   9.8159  10.6843  12.5261

          k =-0.1875 0.1083 0.0000 (  2782 PWs)   bands (ev):

   -19.1567  -7.1073  -6.2966  -4.8637   3.8097   5.3844   6.6018   7.8954
     8.4723  11.0005  11.2652  13.1311

          k = 0.1875 0.1083 0.0000 (  2782 PWs)   bands (ev):

   -19.1564  -7.1081  -6.2783  -4.8847   3.8096   5.3841   6.6014   7.8784
     8.4781  11.0297  11.2651  13.1307

          k =-0.2500 0.1443 0.0000 (  2772 PWs)   bands (ev):

   -18.5176  -7.8933  -6.3578  -5.5229   4.6916   6.2012   6.9053   7.4001
     7.7664  12.0601  12.9638  13.9667

          k = 0.2500 0.1443 0.0000 (  2772 PWs)   bands (ev):

   -18.5173  -7.8789  -6.3593  -5.5409   4.6916   6.1997   6.9148   7.3964
     7.7582  12.0597  12.9902  13.9659

          k =-0.3125 0.1804 0.0000 (  2766 PWs)   bands (ev):

   -17.7044  -9.5477  -6.0967  -5.4271   5.0673   5.8205   7.4088   7.4113
     8.6446  13.0341  15.0121  15.0881

          k = 0.3125 0.1804 0.0000 (  2766 PWs)   bands (ev):

   -17.7039  -9.5362  -6.1126  -5.4300   5.0768   5.8205   7.4028   7.4097
     8.6446  13.0331  15.0097  15.1126

          k =-0.3750 0.2165 0.0000 (  2788 PWs)   bands (ev):

   -16.7271 -11.1700  -6.5335  -4.3672   3.3638   7.0908   7.3261   8.7485
    10.0005  14.0628  14.6280  17.1522

          k = 0.3750 0.2165 0.0000 (  2788 PWs)   bands (ev):

   -16.7266 -11.1602  -6.5480  -4.3725   3.3770   7.0872   7.3231   8.7488
    10.0007  14.0603  14.6296  17.1760

          k =-0.4375 0.2526 0.0000 (  2782 PWs)   bands (ev):

   -15.6141 -12.6856  -6.8050  -3.3299   1.9087   7.0675   8.8345  10.3117
    11.5990  12.6883  13.8567  15.5659

          k = 0.4375 0.2526 0.0000 (  2782 PWs)   bands (ev):

   -15.6147 -12.6758  -6.8187  -3.3396   1.9269   7.0618   8.8347  10.3116
    11.5991  12.6897  13.8541  15.5627

          k = 0.5000-0.2887 0.0000 (  2788 PWs)   bands (ev):

   -14.7175 -13.7188  -6.8970  -2.8037   1.2385   7.0239  10.6025  10.7428
    11.8714  12.2759  13.3798  13.4607

          k =-0.5000-0.2887 0.0000 (  2788 PWs)   bands (ev):

   -14.7249 -13.7026  -6.9103  -2.8176   1.2609   7.0185  10.6015  10.7450
    11.8709  12.2749  13.3786  13.4632

          k =-0.0625 0.1083 0.0000 (  2773 PWs)   bands (ev):

   -19.7084  -7.7630  -4.5492  -4.0842   3.0524   4.6391   5.8595   8.1116
     8.8717  10.1077  10.5651  12.7819

          k = 0.1250 0.0000 0.0000 (  2773 PWs)   bands (ev):

   -19.7084  -7.7632  -4.5226  -4.1119   3.0524   4.6391   5.8593   8.0712
     8.9180  10.1102  10.5649  12.7781

          k =-0.0625 0.1804 0.0000 (  2775 PWs)   bands (ev):

   -19.3402  -7.3244  -5.6736  -4.7450   3.5576   5.1375   6.3574   8.2510
     8.9990   9.9685  11.0289  12.8962

          k =-0.1250 0.1443 0.0000 (  2775 PWs)   bands (ev):

   -19.3402  -7.3244  -5.6732  -4.7454   3.5576   5.1375   6.3574   8.2506
     8.9990   9.9690  11.0289  12.8962

          k = 0.1875 0.0361 0.0000 (  2775 PWs)   bands (ev):

   -19.3401  -7.3250  -5.6475  -4.7732   3.5575   5.1373   6.3570   8.2156
     9.0046  10.0143  11.0284  12.8962

          k =-0.1250-0.1443 0.0000 (  2775 PWs)   bands (ev):

   -19.3401  -7.3250  -5.6479  -4.7728   3.5575   5.1373   6.3570   8.2162
     9.0045  10.0135  11.0285  12.8963

          k = 0.1875-0.0361 0.0000 (  2775 PWs)   bands (ev):

   -19.3401  -7.3248  -5.6592  -4.7604   3.5575   5.1374   6.3571   8.2271
     9.0025   9.9985  11.0284  12.8964

          k =-0.0625 0.2526 0.0000 (  2776 PWs)   bands (ev):

   -18.7910  -7.1169  -6.6760  -5.4590   4.3145   5.8754   7.0980   7.5511
     8.1802  11.5011  11.7099  13.6213

          k =-0.1875 0.1804 0.0000 (  2776 PWs)   bands (ev):

   -18.7910  -7.1165  -6.6760  -5.4595   4.3145   5.8754   7.0980   7.5512
     8.1799  11.5017  11.7099  13.6213

          k = 0.2500 0.0722 0.0000 (  2776 PWs)   bands (ev):

   -18.7906  -7.0971  -6.6773  -5.4819   4.3144   5.8747   7.0971   7.5599
     8.1584  11.5335  11.7091  13.6214

          k =-0.1875-0.1804 0.0000 (  2776 PWs)   bands (ev):

   -18.7906  -7.0973  -6.6773  -5.4817   4.3144   5.8747   7.0971   7.5598
     8.1588  11.5331  11.7091  13.6214

          k = 0.2500-0.0722 0.0000 (  2776 PWs)   bands (ev):

   -18.7908  -7.1100  -6.6765  -5.4667   4.3144   5.8753   7.0973   7.5549
     8.1689  11.5160  11.7091  13.6215

          k =-0.0625 0.3248 0.0000 (  2779 PWs)   bands (ev):

   -18.0649  -8.7114  -6.1072  -5.8332   5.3211   5.8442   6.9170   7.8556
     8.2186  12.5782  13.2401  14.5788

          k =-0.2500 0.2165 0.0000 (  2779 PWs)   bands (ev):

   -18.0648  -8.7111  -6.1076  -5.8332   5.3211   5.8444   6.9170   7.8555
     8.2186  12.5781  13.2406  14.5788

          k = 0.3125 0.1083 0.0000 (  2779 PWs)   bands (ev):

   -18.0643  -8.6966  -6.1258  -5.8356   5.3211   5.8533   6.9185   7.8438
     8.2160  12.5766  13.2592  14.5796

          k =-0.2500-0.2165 0.0000 (  2779 PWs)   bands (ev):

   -18.0643  -8.6967  -6.1257  -5.8356   5.3211   5.8532   6.9185   7.8440
     8.2160  12.5766  13.2591  14.5796

          k = 0.3125-0.1083 0.0000 (  2779 PWs)   bands (ev):

   -18.0647  -8.7081  -6.1111  -5.8340   5.3210   5.8479   6.9166   7.8498
     8.2183  12.5769  13.2447  14.5792

          k =-0.0625 0.3969 0.0000 (  2779 PWs)   bands (ev):

   -17.1691 -10.3339  -6.6286  -4.8291   4.1520   6.5712   7.7207   8.1240
     9.3845  13.5446  14.6023  15.7498

          k =-0.3125 0.2526 0.0000 (  2779 PWs)   bands (ev):

   -17.1691 -10.3336  -6.6290  -4.8292   4.1523   6.5712   7.7205   8.1240
     9.3845  13.5445  14.6025  15.7497

          k = 0.3750 0.1443 0.0000 (  2779 PWs)   bands (ev):

   -17.1685 -10.3223  -6.6446  -4.8334   4.1650   6.5710   7.7108   8.1241
     9.3848  13.5414  14.6068  15.7516

          k =-0.3125-0.2526 0.0000 (  2779 PWs)   bands (ev):

   -17.1685 -10.3224  -6.6445  -4.8333   4.1649   6.5710   7.7109   8.1241
     9.3848  13.5414  14.6069  15.7516

          k = 0.3750-0.1443 0.0000 (  2779 PWs)   bands (ev):

   -17.1689 -10.3323  -6.6307  -4.8301   4.1553   6.5709   7.7174   8.1235
     9.3848  13.5426  14.6001  15.7502

          k =-0.0625 0.4691 0.0000 (  2777 PWs)   bands (ev):

   -16.1194 -11.8991  -6.9906  -3.7482   2.5541   7.5212   8.1030   9.5698
    10.8622  13.7175  14.1381  15.6165

          k =-0.3750 0.2887 0.0000 (  2777 PWs)   bands (ev):

   -16.1194 -11.8989  -6.9909  -3.7484   2.5545   7.5210   8.1030   9.5698
    10.8622  13.7176  14.1380  15.6165

          k = 0.4375 0.1804 0.0000 (  2777 PWs)   bands (ev):

   -16.1192 -11.8891  -7.0049  -3.7559   2.5708   7.5135   8.1033   9.5694
    10.8625  13.7189  14.1328  15.6157

          k =-0.3750-0.2887 0.0000 (  2777 PWs)   bands (ev):

   -16.1192 -11.8891  -7.0049  -3.7559   2.5707   7.5135   8.1033   9.5694
    10.8625  13.7189  14.1328  15.6156

          k = 0.4375-0.1804 0.0000 (  2777 PWs)   bands (ev):

   -16.1193 -11.8984  -6.9917  -3.7493   2.5567   7.5189   8.1036   9.5691
    10.8625  13.7168  14.1371  15.6168

          k =-0.0625 0.5413 0.0000 (  2787 PWs)   bands (ev):

   -14.9913 -13.2934  -7.1754  -2.8677   1.4006   7.4457   9.8142  11.1853
    11.7418  12.5743  12.9976  14.4605

          k =-0.4375 0.3248 0.0000 (  2787 PWs)   bands (ev):

   -14.9914 -13.2931  -7.1758  -2.8681   1.4012   7.4456   9.8142  11.1853
    11.7418  12.5743  12.9976  14.4606

          k = 0.5000 0.2165 0.0000 (  2787 PWs)   bands (ev):

   -14.9944 -13.2810  -7.1890  -2.8807   1.4225   7.4394   9.8146  11.1841
    11.7424  12.5750  12.9963  14.4611

          k =-0.4375-0.3248 0.0000 (  2787 PWs)   bands (ev):

   -14.9944 -13.2810  -7.1890  -2.8807   1.4225   7.4394   9.8146  11.1841
    11.7424  12.5750  12.9963  14.4611

          k = 0.5000-0.2165 0.0000 (  2787 PWs)   bands (ev):

   -14.9913 -13.2930  -7.1760  -2.8686   1.4022   7.4450   9.8144  11.1843
    11.7415  12.5746  12.9990  14.4601

          k =-0.1250 0.2165 0.0000 (  2767 PWs)   bands (ev):

   -18.8824  -6.7826  -6.6989  -5.6080   4.1889   5.7573   6.9820   7.8059
     8.8378  10.4345  11.5847  13.5051

          k = 0.2500 0.0000 0.0000 (  2767 PWs)   bands (ev):

   -18.8821  -6.7836  -6.6773  -5.6315   4.1888   5.7570   6.9814   7.8128
     8.7964  10.4820  11.5837  13.5054

          k =-0.1250 0.2887 0.0000 (  2780 PWs)   bands (ev):

   -18.2460  -7.9926  -6.4601  -6.0385   5.0712   6.3418   6.6408   7.8507
     9.0790  11.4257  12.3163  14.3428

          k =-0.1875 0.2526 0.0000 (  2780 PWs)   bands (ev):

   -18.2460  -7.9924  -6.4603  -6.0386   5.0712   6.3418   6.6409   7.8507
     9.0788  11.4260  12.3163  14.3429

          k = 0.3125 0.0361 0.0000 (  2780 PWs)   bands (ev):

   -18.2455  -7.9726  -6.4827  -6.0404   5.0711   6.3495   6.6425   7.8497
     9.0485  11.4590  12.3141  14.3435

          k =-0.1875-0.2526 0.0000 (  2780 PWs)   bands (ev):

   -18.2455  -7.9730  -6.4823  -6.0404   5.0711   6.3493   6.6426   7.8497
     9.0492  11.4583  12.3142  14.3434

          k = 0.3125-0.0361 0.0000 (  2780 PWs)   bands (ev):

   -18.2456  -7.9802  -6.4739  -6.0399   5.0711   6.3492   6.6402   7.8497
     9.0556  11.4499  12.3142  14.3433

          k =-0.1250 0.3608 0.0000 (  2776 PWs)   bands (ev):

   -17.4370  -9.4783  -7.1337  -5.1137   4.7781   6.2016   7.7223   8.8084
     9.1210  12.8735  13.1101  15.3996

          k =-0.2500 0.2887 0.0000 (  2776 PWs)   bands (ev):

   -17.4370  -9.4780  -7.1341  -5.1137   4.7783   6.2016   7.7223   8.8083
     9.1209  12.8738  13.1101  15.3996

          k = 0.3750 0.0722 0.0000 (  2776 PWs)   bands (ev):

   -17.4364  -9.4633  -7.1520  -5.1171   4.7902   6.2015   7.7219   8.7955
     9.1161  12.8880  13.1057  15.4009

          k =-0.2500-0.2887 0.0000 (  2776 PWs)   bands (ev):

   -17.4364  -9.4635  -7.1519  -5.1170   4.7900   6.2015   7.7219   8.7958
     9.1161  12.8879  13.1058  15.4009

          k = 0.3750-0.0722 0.0000 (  2776 PWs)   bands (ev):

   -17.4366  -9.4725  -7.1407  -5.1155   4.7850   6.2014   7.7214   8.7990
     9.1197  12.8791  13.1064  15.4003

          k =-0.1250 0.4330 0.0000 (  2777 PWs)   bands (ev):

   -16.4662 -11.0120  -7.6147  -4.0567   3.1901   7.5725   8.7414   9.0311
    10.3715  13.6031  13.9309  16.0565

          k =-0.3125 0.3248 0.0000 (  2777 PWs)   bands (ev):

   -16.4662 -11.0117  -7.6151  -4.0568   3.1903   7.5725   8.7412   9.0311
    10.3715  13.6030  13.9311  16.3738

          k = 0.4375 0.1083 0.0000 (  2777 PWs)   bands (ev):

   -16.4657 -11.0004  -7.6299  -4.0626   3.2051   7.5723   8.7301   9.0301
    10.3719  13.5959  13.9339  16.0563

          k =-0.3125-0.3248 0.0000 (  2777 PWs)   bands (ev):

   -16.4657 -11.0005  -7.6298  -4.0626   3.2049   7.5723   8.7302   9.0301
    10.3719  13.5960  13.9340  16.0562

          k = 0.4375-0.1083 0.0000 (  2777 PWs)   bands (ev):

   -16.4658 -11.0094  -7.6181  -4.0588   3.1958   7.5721   8.7363   9.0298
    10.3722  13.5993  13.9285  16.0600

          k =-0.1250 0.5052 0.0000 (  2779 PWs)   bands (ev):

   -15.3635 -12.4790  -7.9045  -3.0096   1.7968   8.5878   9.2064  10.4865
    11.9518  12.9148  13.3379  15.4610

          k =-0.3750 0.3608 0.0000 (  2779 PWs)   bands (ev):

   -15.3636 -12.4787  -7.9048  -3.0099   1.7972   8.5876   9.2063  10.4865
    11.9518  12.9148  13.3378  15.4610

          k = 0.5000 0.1443 0.0000 (  2779 PWs)   bands (ev):

   -15.3642 -12.4682  -7.9179  -3.0201   1.8161   8.5792   9.2070  10.4843
    11.9520  12.9159  13.3336  15.4601

          k =-0.3750-0.3608 0.0000 (  2779 PWs)   bands (ev):

   -15.3642 -12.4682  -7.9178  -3.0200   1.8160   8.5793   9.2069  10.4843
    11.9520  12.9159  13.3335  15.4602

          k = 0.5000-0.1443 0.0000 (  2779 PWs)   bands (ev):

   -15.3633 -12.4779  -7.9060  -3.0118   1.8009   8.5845   9.2075  10.4845
    11.9524  12.9136  13.3394  15.4591

          k =-0.4375 0.3969 0.0000 (  2790 PWs)   bands (ev):

   -14.4805 -13.4869  -8.0020  -2.4656   1.1333   8.5502  10.9306  11.0928
    11.5804  12.6547  13.6740  13.7948

          k = 0.5625 0.1804 0.0000 (  2790 PWs)   bands (ev):

   -14.4883 -13.4702  -8.0142  -2.4793   1.1549   8.5437  10.9291  11.0953
    11.5769  12.6537  13.6722  13.7976

          k =-0.1875 0.3248 0.0000 (  2778 PWs)   bands (ev):

   -17.5267  -8.9750  -7.5410  -5.2098   5.0292   6.0772   7.5780   8.8485
    10.1593  11.4438  12.9389  15.2809

          k = 0.3750 0.0000 0.0000 (  2778 PWs)   bands (ev):

   -17.5262  -8.9578  -7.5602  -5.2123   5.0394   6.0771   7.5770   8.8472
    10.1180  11.4823  12.9343  15.2818

          k =-0.1875 0.3969 0.0000 (  2776 PWs)   bands (ev):

   -16.6418 -10.1950  -8.3526  -4.2188   3.6076   7.3276   8.7363  10.0409
    10.4472  12.4637  13.1573  16.0457

          k =-0.2500 0.3608 0.0000 (  2776 PWs)   bands (ev):

   -16.6418 -10.1948  -8.3528  -4.2188   3.6077   7.3276   8.7363  10.0409
    10.4470  12.4639  13.1572  16.0456

          k = 0.4375 0.0361 0.0000 (  2776 PWs)   bands (ev):

   -16.6412 -10.1794  -8.3707  -4.2232   3.6204   7.3276   8.7345  10.0345
    10.4306  12.4787  13.1499  16.0471

          k =-0.2500-0.3608 0.0000 (  2776 PWs)   bands (ev):

   -16.6412 -10.1797  -8.3704  -4.2231   3.6201   7.3276   8.7346  10.0347
    10.4309  12.4785  13.1500  16.0470

          k = 0.4375-0.0361 0.0000 (  2776 PWs)   bands (ev):

   -16.6413 -10.1855  -8.3636  -4.2220   3.6171   7.3275   8.7344  10.0346
    10.4371  12.4722  13.1512  16.0487

          k =-0.1875 0.4691 0.0000 (  2766 PWs)   bands (ev):

   -15.6092 -11.5674  -8.8339  -3.1364   2.2071   8.8113   9.9905  10.2305
    11.5886  12.9245  13.3774  15.9027

          k =-0.3125 0.3969 0.0000 (  2766 PWs)   bands (ev):

   -15.6092 -11.5672  -8.8342  -3.1366   2.2073   8.8113   9.9905  10.2303
    11.5886  12.9243  13.3776  15.9027

          k = 0.5000 0.0722 0.0000 (  2766 PWs)   bands (ev):

   -15.6091 -11.5551  -8.8484  -3.1443   2.2231   8.8112   9.9870  10.2187
    11.5891  12.9194  13.3786  15.9023

          k =-0.3125-0.3969 0.0000 (  2766 PWs)   bands (ev):

   -15.6091 -11.5552  -8.8483  -3.1442   2.2229   8.8112   9.9871  10.2189
    11.5891  12.9194  13.3787  15.9023

          k = 0.5000-0.0722 0.0000 (  2766 PWs)   bands (ev):

   -15.6089 -11.5634  -8.8388  -3.1401   2.2149   8.8109   9.9873  10.2248
    11.5901  12.9233  13.3738  15.9020

          k =-0.1875 0.5413 0.0000 (  2774 PWs)   bands (ev):

   -14.5073 -12.8699  -9.0591  -2.2111   1.1119  10.1124  10.5292  10.9382
    12.3106  13.0046  13.2493  14.8870

          k =-0.3750 0.4330 0.0000 (  2774 PWs)   bands (ev):

   -14.5074 -12.8695  -9.0594  -2.2115   1.1124  10.1123  10.5291  10.9381
    12.3106  13.0045  13.2493  14.8870

          k = 0.5625 0.1083 0.0000 (  2774 PWs)   bands (ev):

   -14.5109 -12.8561  -9.0714  -2.2244   1.1326  10.1042  10.5301  10.9320
    12.3101  13.0042  13.2504  14.8856

          k =-0.3750-0.4330 0.0000 (  2774 PWs)   bands (ev):

   -14.5109 -12.8561  -9.0714  -2.2243   1.1325  10.1043  10.5301  10.9321
    12.3102  13.0042  13.2504  14.8857

          k = 0.5625-0.1083 0.0000 (  2774 PWs)   bands (ev):

   -14.5074 -12.8684  -9.0607  -2.2137   1.1161  10.1087  10.5323  10.9352
    12.3087  13.0076  13.2506  14.8845

          k =-0.2500 0.4330 0.0000 (  2770 PWs)   bands (ev):

   -15.6932 -10.9891  -9.4315  -3.1854   2.3842   8.6892   9.8013  11.3841
    11.9420  12.2319  12.6956  16.6778

          k = 0.5000 0.0000 0.0000 (  2770 PWs)   bands (ev):

   -15.6929 -10.9755  -9.4466  -3.1910   2.3963   8.6891   9.7973  11.3758
    11.9103  12.2611  12.6923  16.6798

          k =-0.2500 0.5052 0.0000 (  2777 PWs)   bands (ev):

   -14.6256 -12.0381 -10.0432  -2.1091   1.1955  10.2577  10.4395  11.8437
    12.8473  12.9172  13.1644  15.5151

          k =-0.3125 0.4691 0.0000 (  2777 PWs)   bands (ev):

   -14.6256 -12.0379 -10.0434  -2.1092   1.1957  10.2577  10.4394  11.8436
    12.8472  12.9171  13.1646  15.5151

          k = 0.5625 0.0361 0.0000 (  2777 PWs)   bands (ev):

   -14.6268 -12.0243 -10.0570  -2.1190   1.2113  10.2576  10.4331  11.8366
    12.8432  12.9179  13.1659  15.5125

          k =-0.3125-0.4691 0.0000 (  2777 PWs)   bands (ev):

   -14.6268 -12.0245 -10.0568  -2.1188   1.2111  10.2576  10.4332  11.8367
    12.8432  12.9178  13.1660  15.5125

          k = 0.5625-0.0361 0.0000 (  2777 PWs)   bands (ev):

   -14.6260 -12.0312 -10.0503  -2.1151   1.2052  10.2573  10.4344  11.8416
    12.8464  12.9192  13.1600  15.5135

          k =-0.3750 0.5052 0.0000 (  2772 PWs)   bands (ev):

   -13.7713 -12.9193 -10.2201  -1.4598   0.5097  10.5170  11.7081  11.8224
    12.1492  13.7883  14.3861  14.7145

          k = 0.6250 0.0722 0.0000 (  2772 PWs)   bands (ev):

   -13.7801 -12.9013 -10.2303  -1.4732   0.5274  10.5126  11.7083  11.8185
    12.1481  13.7873  14.3809  14.7187

          k =-0.3125 0.5413 0.0000 (  2770 PWs)   bands (ev):

   -13.5937 -12.6074 -10.8771  -1.0531   0.1701  10.2680  11.7872  12.5891
    13.0179  14.0932  14.4464  15.2011

          k = 0.6250 0.0000 0.0000 (  2770 PWs)   bands (ev):

   -13.5979 -12.5964 -10.8843  -1.0641   0.1834  10.2652  11.7854  12.6042
    12.9980  14.0944  14.4485  15.2093

     the Fermi energy is    -0.4408 ev

!    total energy              =     -22.79125900 Ry
     Harris-Foulkes estimate   =     -22.79125899 Ry
     estimated scf accuracy    <          2.0E-09 Ry

     The total energy is the sum of the following terms:

     one-electron contribution =     -91.13165843 Ry
     hartree contribution      =      47.31387683 Ry
     xc contribution           =      -7.02588615 Ry
     ewald contribution        =      28.05241174 Ry
     smearing contrib. (-TS)   =      -0.00000298 Ry

     convergence has been achieved in   7 iterations

     Forces acting on atoms (Ry/au):

     atom   1 type  1   force =     0.00208886    0.00129762    0.00000000
     atom   2 type  1   force =    -0.00208886   -0.00129762    0.00000000

     Total force =     0.003478     Total SCF correction =     0.000006


     entering subroutine stress ...

          total   stress  (Ry/bohr**3)                   (kbar)     P=    2.57
   0.00002480  -0.00000283   0.00000000          3.65     -0.42      0.00
  -0.00000283   0.00002822   0.00000000         -0.42      4.15      0.00
   0.00000000   0.00000000  -0.00000053          0.00      0.00     -0.08


     BFGS Geometry Optimization

     number of scf cycles    =   1
     number of bfgs steps    =   0

     enthalpy new            =     -22.7912589962 Ry

     new trust radius        =       0.2000000000 bohr
     new conv_thr            =       0.0000000100 Ry

     new unit-cell volume =    378.05718 a.u.^3 (    56.02229 Ang^3 )

CELL_PARAMETERS (alat=  4.64872800)
   1.032052593  -0.003654511   0.000000000
  -0.519191196   0.899439740   0.000000000
   0.000000000   0.000000000   4.062279411

ATOMIC_POSITIONS (angstrom)
C        0.041598102   0.025766655   0.000000000
C        1.226387245   0.706297186   0.000000000



     Writing output data file graphene.save
     NEW-OLD atomic charge density approx. for the potential
     NEW k-points:
        k(    1) = (   0.0000000   0.0000000   0.0000000), wk =   0.0078125
        k(    2) = (   0.0002466   0.0696300   0.0000000), wk =   0.0156250
        k(    3) = (   0.0004931   0.1392601   0.0000000), wk =   0.0156250
        k(    4) = (   0.0007397   0.2088901   0.0000000), wk =   0.0156250
        k(    5) = (   0.0009862   0.2785201   0.0000000), wk =   0.0156250
        k(    6) = (   0.0012328   0.3481501   0.0000000), wk =   0.0156250
        k(    7) = (   0.0014794   0.4177802   0.0000000), wk =   0.0156250
        k(    8) = (   0.0017259   0.4874102   0.0000000), wk =   0.0156250
        k(    9) = (  -0.0019725  -0.5570402   0.0000000), wk =   0.0078125
        k(   10) = (   0.0609295   0.1046586   0.0000000), wk =   0.0156250
        k(   11) = (   0.0611761   0.1742886   0.0000000), wk =   0.0156250
        k(   12) = (   0.0614226   0.2439186   0.0000000), wk =   0.0156250
        k(   13) = (   0.0616692   0.3135486   0.0000000), wk =   0.0156250
        k(   14) = (   0.0619158   0.3831787   0.0000000), wk =   0.0156250
        k(   15) = (   0.0621623   0.4528087   0.0000000), wk =   0.0156250
        k(   16) = (   0.0624089   0.5224387   0.0000000), wk =   0.0156250
        k(   17) = (   0.1218591   0.2093171   0.0000000), wk =   0.0156250
        k(   18) = (   0.1221056   0.2789472   0.0000000), wk =   0.0156250
        k(   19) = (   0.1223522   0.3485772   0.0000000), wk =   0.0156250
        k(   20) = (   0.1225987   0.4182072   0.0000000), wk =   0.0156250
        k(   21) = (   0.1228453   0.4878372   0.0000000), wk =   0.0156250
        k(   22) = (   0.1230919   0.5574673   0.0000000), wk =   0.0156250
        k(   23) = (   0.1827886   0.3139757   0.0000000), wk =   0.0156250
        k(   24) = (   0.1830351   0.3836057   0.0000000), wk =   0.0156250
        k(   25) = (   0.1832817   0.4532358   0.0000000), wk =   0.0156250
        k(   26) = (   0.1835283   0.5228658   0.0000000), wk =   0.0156250
        k(   27) = (   0.2437181   0.4186343   0.0000000), wk =   0.0156250
        k(   28) = (   0.2439647   0.4882643   0.0000000), wk =   0.0156250
        k(   29) = (   0.2442112   0.5578943   0.0000000), wk =   0.0156250
        k(   30) = (   0.3046476   0.5232928   0.0000000), wk =   0.0156250
        k(   31) = (  -0.0604364   0.0346015   0.0000000), wk =   0.0156250
        k(   32) = (   0.0606830   0.0350285   0.0000000), wk =   0.0156250
        k(   33) = (  -0.1208728   0.0692030   0.0000000), wk =   0.0156250
        k(   34) = (   0.1213659   0.0700571   0.0000000), wk =   0.0156250
        k(   35) = (  -0.1813092   0.1038045   0.0000000), wk =   0.0156250
        k(   36) = (   0.1820489   0.1050856   0.0000000), wk =   0.0156250
        k(   37) = (  -0.2417456   0.1384059   0.0000000), wk =   0.0156250
        k(   38) = (   0.2427319   0.1401142   0.0000000), wk =   0.0156250
        k(   39) = (  -0.3021820   0.1730074   0.0000000), wk =   0.0156250
        k(   40) = (   0.3034148   0.1751427   0.0000000), wk =   0.0156250
        k(   41) = (  -0.3626184   0.2076089   0.0000000), wk =   0.0156250
        k(   42) = (   0.3640978   0.2101712   0.0000000), wk =   0.0156250
        k(   43) = (  -0.4230548   0.2422104   0.0000000), wk =   0.0156250
        k(   44) = (   0.4247808   0.2451998   0.0000000), wk =   0.0156250
        k(   45) = (   0.4834912  -0.2768119   0.0000000), wk =   0.0078125
        k(   46) = (  -0.4854637  -0.2802283   0.0000000), wk =   0.0078125
        k(   47) = (  -0.0601898   0.1042315   0.0000000), wk =   0.0156250
        k(   48) = (   0.1211194   0.0004271   0.0000000), wk =   0.0156250
        k(   49) = (  -0.0599433   0.1738615   0.0000000), wk =   0.0156250
        k(   50) = (  -0.1206262   0.1388330   0.0000000), wk =   0.0156250
        k(   51) = (   0.1818023   0.0354556   0.0000000), wk =   0.0156250
        k(   52) = (  -0.1216125  -0.1396871   0.0000000), wk =   0.0156250
        k(   53) = (   0.1815558  -0.0341744   0.0000000), wk =   0.0156250
        k(   54) = (  -0.0596967   0.2434916   0.0000000), wk =   0.0156250
        k(   55) = (  -0.1810627   0.1734345   0.0000000), wk =   0.0156250
        k(   56) = (   0.2424853   0.0704841   0.0000000), wk =   0.0156250
        k(   57) = (  -0.1822955  -0.1747156   0.0000000), wk =   0.0156250
        k(   58) = (   0.2419922  -0.0687759   0.0000000), wk =   0.0156250
        k(   59) = (  -0.0594502   0.3131216   0.0000000), wk =   0.0156250
        k(   60) = (  -0.2414991   0.2080360   0.0000000), wk =   0.0156250
        k(   61) = (   0.3031683   0.1055127   0.0000000), wk =   0.0156250
        k(   62) = (  -0.2429784  -0.2097442   0.0000000), wk =   0.0156250
        k(   63) = (   0.3024286  -0.1033774   0.0000000), wk =   0.0156250
        k(   64) = (  -0.0592036   0.3827516   0.0000000), wk =   0.0156250
        k(   65) = (  -0.3019355   0.2426375   0.0000000), wk =   0.0156250
        k(   66) = (   0.3638512   0.1405412   0.0000000), wk =   0.0156250
        k(   67) = (  -0.3036614  -0.2447727   0.0000000), wk =   0.0156250
        k(   68) = (   0.3628650  -0.1379789   0.0000000), wk =   0.0156250
        k(   69) = (  -0.0589570   0.4523816   0.0000000), wk =   0.0156250
        k(   70) = (  -0.3623719   0.2772389   0.0000000), wk =   0.0156250
        k(   71) = (   0.4245342   0.1755698   0.0000000), wk =   0.0156250
        k(   72) = (  -0.3643444  -0.2798013   0.0000000), wk =   0.0156250
        k(   73) = (   0.4233014  -0.1725804   0.0000000), wk =   0.0156250
        k(   74) = (  -0.0587105   0.5220117   0.0000000), wk =   0.0156250
        k(   75) = (  -0.4228083   0.3118404   0.0000000), wk =   0.0156250
        k(   76) = (   0.4852172   0.2105983   0.0000000), wk =   0.0156250
        k(   77) = (  -0.4250273  -0.3148298   0.0000000), wk =   0.0156250
        k(   78) = (   0.4837378  -0.2071819   0.0000000), wk =   0.0156250
        k(   79) = (  -0.1203797   0.2084630   0.0000000), wk =   0.0156250
        k(   80) = (   0.2422387   0.0008541   0.0000000), wk =   0.0156250
        k(   81) = (  -0.1201331   0.2780930   0.0000000), wk =   0.0156250
        k(   82) = (  -0.1808161   0.2430645   0.0000000), wk =   0.0156250
        k(   83) = (   0.3029217   0.0358827   0.0000000), wk =   0.0156250
        k(   84) = (  -0.1825420  -0.2443457   0.0000000), wk =   0.0156250
        k(   85) = (   0.3026751  -0.0337474   0.0000000), wk =   0.0156250
        k(   86) = (  -0.1198866   0.3477231   0.0000000), wk =   0.0156250
        k(   87) = (  -0.2412525   0.2776660   0.0000000), wk =   0.0156250
        k(   88) = (   0.3636047   0.0709112   0.0000000), wk =   0.0156250
        k(   89) = (  -0.2432250  -0.2793742   0.0000000), wk =   0.0156250
        k(   90) = (   0.3631116  -0.0683489   0.0000000), wk =   0.0156250
        k(   91) = (  -0.1196400   0.4173531   0.0000000), wk =   0.0156250
        k(   92) = (  -0.3016889   0.3122675   0.0000000), wk =   0.0156250
        k(   93) = (   0.4242876   0.1059397   0.0000000), wk =   0.0156250
        k(   94) = (  -0.3039080  -0.3144028   0.0000000), wk =   0.0156250
        k(   95) = (   0.4235480  -0.1029503   0.0000000), wk =   0.0156250
        k(   96) = (  -0.1193934   0.4869831   0.0000000), wk =   0.0156250
        k(   97) = (  -0.3621253   0.3468690   0.0000000), wk =   0.0156250
        k(   98) = (   0.4849706   0.1409683   0.0000000), wk =   0.0156250
        k(   99) = (  -0.3645909  -0.3494313   0.0000000), wk =   0.0156250
        k(  100) = (   0.4839844  -0.1375518   0.0000000), wk =   0.0156250
        k(  101) = (  -0.4225617   0.3814704   0.0000000), wk =   0.0156250
        k(  102) = (   0.5456536   0.1759968   0.0000000), wk =   0.0156250
        k(  103) = (  -0.1805695   0.3126945   0.0000000), wk =   0.0156250
        k(  104) = (   0.3633581   0.0012812   0.0000000), wk =   0.0156250
        k(  105) = (  -0.1803230   0.3823246   0.0000000), wk =   0.0156250
        k(  106) = (  -0.2410059   0.3472960   0.0000000), wk =   0.0156250
        k(  107) = (   0.4240411   0.0363097   0.0000000), wk =   0.0156250
        k(  108) = (  -0.2434715  -0.3490042   0.0000000), wk =   0.0156250
        k(  109) = (   0.4237945  -0.0333203   0.0000000), wk =   0.0156250
        k(  110) = (  -0.1800764   0.4519546   0.0000000), wk =   0.0156250
        k(  111) = (  -0.3014423   0.3818975   0.0000000), wk =   0.0156250
        k(  112) = (   0.4847240   0.0713382   0.0000000), wk =   0.0156250
        k(  113) = (  -0.3041545  -0.3840328   0.0000000), wk =   0.0156250
        k(  114) = (   0.4842309  -0.0679218   0.0000000), wk =   0.0156250
        k(  115) = (  -0.1798299   0.5215846   0.0000000), wk =   0.0156250
        k(  116) = (  -0.3618787   0.4164990   0.0000000), wk =   0.0156250
        k(  117) = (   0.5454070   0.1063668   0.0000000), wk =   0.0156250
        k(  118) = (  -0.3648375  -0.4190613   0.0000000), wk =   0.0156250
        k(  119) = (   0.5446673  -0.1025233   0.0000000), wk =   0.0156250
        k(  120) = (  -0.2407594   0.4169260   0.0000000), wk =   0.0156250
        k(  121) = (   0.4844775   0.0017082   0.0000000), wk =   0.0156250
        k(  122) = (  -0.2405128   0.4865561   0.0000000), wk =   0.0156250
        k(  123) = (  -0.3011958   0.4515275   0.0000000), wk =   0.0156250
        k(  124) = (   0.5451604   0.0367368   0.0000000), wk =   0.0156250
        k(  125) = (  -0.3044011  -0.4536628   0.0000000), wk =   0.0156250
        k(  126) = (   0.5449139  -0.0328933   0.0000000), wk =   0.0156250
        k(  127) = (  -0.3616322   0.4861290   0.0000000), wk =   0.0156250
        k(  128) = (   0.6058434   0.0717653   0.0000000), wk =   0.0156250
        k(  129) = (  -0.3009492   0.5211576   0.0000000), wk =   0.0156250
        k(  130) = (   0.6055969   0.0021353   0.0000000), wk =   0.0156250

     negative rho (up, down):  0.591E-05 0.000E+00
     extrapolated charge    8.51605, renormalised to    8.00000

     total cpu time spent up to now is    193.27 secs

     per-process dynamical memory:    24.1 Mb

     Self-consistent Calculation

     iteration #  1     ecut=    60.00 Ry     beta=0.30
     Davidson diagonalization with overlap
     ethr =  1.00E-06,  avg # of iterations =  8.8

     total cpu time spent up to now is    244.57 secs

     total energy              =     -18.74602850 Ry
     Harris-Foulkes estimate   =     -18.04289963 Ry
     estimated scf accuracy    <       6.09399925 Ry

     iteration #  2     ecut=    60.00 Ry     beta=0.30
     Davidson diagonalization with overlap
     ethr =  1.00E-02,  avg # of iterations =  5.6

     total cpu time spent up to now is    282.22 secs

     total energy              =     -23.07028638 Ry
     Harris-Foulkes estimate   =     -23.34519241 Ry
     estimated scf accuracy    <       0.76192948 Ry

     iteration #  3     ecut=    60.00 Ry     beta=0.30
     Davidson diagonalization with overlap
     ethr =  9.52E-03,  avg # of iterations =  1.5

     total cpu time spent up to now is    300.72 secs

     total energy              =     -22.84225541 Ry
     Harris-Foulkes estimate   =     -23.07643556 Ry
     estimated scf accuracy    <       0.41233864 Ry

     iteration #  4     ecut=    60.00 Ry     beta=0.30
     Davidson diagonalization with overlap
     ethr =  5.15E-03,  avg # of iterations =  2.7

     total cpu time spent up to now is    322.23 secs

     total energy              =     -22.79684326 Ry
     Harris-Foulkes estimate   =     -22.85279049 Ry
     estimated scf accuracy    <       0.12030355 Ry

     iteration #  5     ecut=    60.00 Ry     beta=0.30
     Davidson diagonalization with overlap
     ethr =  1.50E-03,  avg # of iterations =  2.4

     total cpu time spent up to now is    343.59 secs

     total energy              =     -22.75877949 Ry
     Harris-Foulkes estimate   =     -22.79791339 Ry
     estimated scf accuracy    <       0.04946669 Ry

     iteration #  6     ecut=    60.00 Ry     beta=0.30
     Davidson diagonalization with overlap
     ethr =  6.18E-04,  avg # of iterations =  3.3

     total cpu time spent up to now is    369.68 secs

     total energy              =     -22.76560368 Ry
     Harris-Foulkes estimate   =     -22.76565270 Ry
     estimated scf accuracy    <       0.00106925 Ry

     iteration #  7     ecut=    60.00 Ry     beta=0.30
     Davidson diagonalization with overlap
     ethr =  1.34E-05,  avg # of iterations =  2.2

     total cpu time spent up to now is    390.09 secs

     total energy              =     -22.76501308 Ry
     Harris-Foulkes estimate   =     -22.76562347 Ry
     estimated scf accuracy    <       0.00098934 Ry

     iteration #  8     ecut=    60.00 Ry     beta=0.30
     Davidson diagonalization with overlap
     ethr =  1.24E-05,  avg # of iterations =  3.1

     total cpu time spent up to now is    413.98 secs

     total energy              =     -22.76523376 Ry
     Harris-Foulkes estimate   =     -22.76515193 Ry
     estimated scf accuracy    <       0.00025065 Ry

     iteration #  9     ecut=    60.00 Ry     beta=0.30
     Davidson diagonalization with overlap
     ethr =  3.13E-06,  avg # of iterations =  3.2

     negative rho (up, down):  0.267E-05 0.000E+00

     total cpu time spent up to now is    437.84 secs

     total energy              =     -22.76527828 Ry
     Harris-Foulkes estimate   =     -22.76523997 Ry
     estimated scf accuracy    <       0.00002108 Ry

     iteration # 10     ecut=    60.00 Ry     beta=0.30
     Davidson diagonalization with overlap
     ethr =  2.63E-07,  avg # of iterations =  4.5

     negative rho (up, down):  0.932E-05 0.000E+00

     total cpu time spent up to now is    465.08 secs

     total energy              =     -22.76527959 Ry
     Harris-Foulkes estimate   =     -22.76527976 Ry
     estimated scf accuracy    <       0.00000605 Ry

     iteration # 11     ecut=    60.00 Ry     beta=0.30
     Davidson diagonalization with overlap
     ethr =  7.57E-08,  avg # of iterations =  1.0

     negative rho (up, down):  0.739E-05 0.000E+00

     total cpu time spent up to now is    483.14 secs

     total energy              =     -22.76527916 Ry
     Harris-Foulkes estimate   =     -22.76527959 Ry
     estimated scf accuracy    <       0.00000465 Ry

     iteration # 12     ecut=    60.00 Ry     beta=0.30
     Davidson diagonalization with overlap
     ethr =  5.81E-08,  avg # of iterations =  1.0

     negative rho (up, down):  0.748E-05 0.000E+00

     total cpu time spent up to now is    501.09 secs

     total energy              =     -22.76527930 Ry
     Harris-Foulkes estimate   =     -22.76527926 Ry
     estimated scf accuracy    <       0.00000243 Ry

     iteration # 13     ecut=    60.00 Ry     beta=0.30
     Davidson diagonalization with overlap
     ethr =  3.03E-08,  avg # of iterations =  1.0

     negative rho (up, down):  0.746E-05 0.000E+00

     total cpu time spent up to now is    518.80 secs

     total energy              =     -22.76527921 Ry
     Harris-Foulkes estimate   =     -22.76527930 Ry
     estimated scf accuracy    <       0.00000264 Ry

     iteration # 14     ecut=    60.00 Ry     beta=0.30
     Davidson diagonalization with overlap
     ethr =  3.03E-08,  avg # of iterations =  1.0

     negative rho (up, down):  0.781E-05 0.000E+00

     total cpu time spent up to now is    537.20 secs

     total energy              =     -22.76527907 Ry
     Harris-Foulkes estimate   =     -22.76527921 Ry
     estimated scf accuracy    <       0.00000160 Ry

     iteration # 15     ecut=    60.00 Ry     beta=0.30
     Davidson diagonalization with overlap
     ethr =  1.99E-08,  avg # of iterations =  1.0

     negative rho (up, down):  0.773E-05 0.000E+00

     total cpu time spent up to now is    555.06 secs

     total energy              =     -22.76527909 Ry
     Harris-Foulkes estimate   =     -22.76527910 Ry
     estimated scf accuracy    <       0.00000011 Ry

     iteration # 16     ecut=    60.00 Ry     beta=0.30
     Davidson diagonalization with overlap
     ethr =  1.39E-09,  avg # of iterations =  1.0

     negative rho (up, down):  0.784E-05 0.000E+00

     total cpu time spent up to now is    576.06 secs

     End of self-consistent calculation

          k = 0.0000 0.0000 0.0000 (  2759 PWs)   bands (ev):

   -19.6301  -7.8850  -5.1913  -2.5924   2.5296   4.1086   5.0223   5.3398
     8.1007  10.0445  10.2609  11.9224

          k = 0.0002 0.0696 0.0000 (  2758 PWs)   bands (ev):

   -19.5437  -7.7856  -5.3774  -2.9754   2.6465   4.2238   5.1576   5.4686
     8.4748   9.2755  10.1529  10.3557

          k = 0.0005 0.1393 0.0000 (  2786 PWs)   bands (ev):

   -19.2855  -7.4896  -5.9231  -3.9090   2.9981   4.5678   5.4281   5.8365
     8.5281   9.4754  10.4728  10.7185

          k = 0.0007 0.2089 0.0000 (  2782 PWs)   bands (ev):

   -18.8577  -7.0036  -6.8408  -4.9606   3.5846   5.1317   5.6187   6.4133
     7.4111  10.8556  10.9954  11.4789

          k = 0.0010 0.2785 0.0000 (  2772 PWs)   bands (ev):

   -18.2653  -8.1198  -6.3417  -5.8119   4.4036   5.6341   5.7018   6.2658
     7.2192  11.7018  12.2536  12.7541

          k = 0.0012 0.3482 0.0000 (  2766 PWs)   bands (ev):

   -17.5180  -9.5850  -6.4292  -5.5325   4.4686   5.3902   5.6008   7.0351
     8.2592  12.5434  13.3040  14.4621

          k = 0.0015 0.4178 0.0000 (  2788 PWs)   bands (ev):

   -16.6383 -11.0520  -6.8584  -4.6390   3.0349   5.3881   6.7605   8.2614
     9.5266  13.3340  13.4036  15.1559

          k = 0.0017 0.4874 0.0000 (  2782 PWs)   bands (ev):

   -15.7032 -12.3623  -7.1151  -3.8199   1.8599   5.2964   8.2634   9.6887
    10.9991  11.8555  12.8857  14.4011

          k =-0.0020-0.5570 0.0000 (  2788 PWs)   bands (ev):

   -15.1376 -13.0564  -7.2008  -3.4438   1.3604   5.2624   9.8604  10.0970
    11.0654  11.5200  12.5823  12.8013

          k = 0.0609 0.1047 0.0000 (  2773 PWs)   bands (ev):

   -19.3714  -7.5753  -5.9108  -3.4530   2.8850   4.4591   5.6831   5.9587
     8.2292   8.6718  10.3825  10.8683

          k = 0.0612 0.1743 0.0000 (  2775 PWs)   bands (ev):

   -19.0281  -7.1775  -6.6480  -4.4365   3.3567   4.9169   6.1120   6.2809
     7.7237   9.1380  10.8088  11.6430

          k = 0.0614 0.2439 0.0000 (  2776 PWs)   bands (ev):

   -18.5174  -7.6745  -6.5958  -5.4600   4.0632   5.5586   6.2393   6.5318
     6.8734  10.4546  11.4282  12.7983

          k = 0.0617 0.3135 0.0000 (  2779 PWs)   bands (ev):

   -17.8460  -8.9594  -6.2845  -5.8503   4.9960   5.0027   6.1080   6.6042
     7.7974  11.9236  12.2031  14.0664

          k = 0.0619 0.3832 0.0000 (  2779 PWs)   bands (ev):

   -17.0282 -10.3662  -6.8728  -4.9835   3.5802   5.9145   6.1862   7.7136
     8.9540  13.0074  13.1132  15.2785

          k = 0.0622 0.4528 0.0000 (  2777 PWs)   bands (ev):

   -16.1036 -11.7331  -7.2557  -4.0970   2.2832   5.7640   7.5756   9.0429
    10.3293  12.7287  13.2012  14.8278

          k = 0.0624 0.5224 0.0000 (  2787 PWs)   bands (ev):

   -15.2511 -12.8127  -7.4525  -3.4535   1.4351   5.6630   9.1819  10.5095
    10.9628  11.9228  12.0662  13.6156

          k = 0.1219 0.2093 0.0000 (  2767 PWs)   bands (ev):

   -18.6014  -7.6539  -6.6607  -5.2030   3.9519   5.4893   6.5687   6.7451
     7.4435   8.7203  11.3348  12.8735

          k = 0.1221 0.2789 0.0000 (  2780 PWs)   bands (ev):

   -18.0109  -8.6180  -6.2694  -5.9901   4.7767   5.2590   6.3613   7.3276
     7.5684  10.0159  12.0011  13.9587

          k = 0.1224 0.3486 0.0000 (  2776 PWs)   bands (ev):

   -17.2661  -9.7734  -7.1408  -5.1733   3.9471   5.8334   7.1208   7.3597
     8.6096  11.4754  12.6767  14.9636

          k = 0.1226 0.4182 0.0000 (  2777 PWs)   bands (ev):

   -16.3905 -11.0417  -7.7361  -4.2750   2.6505   6.9102   7.1186   8.5696
     9.8747  12.6213  12.8895  15.1686

          k = 0.1228 0.4878 0.0000 (  2779 PWs)   bands (ev):

   -15.4650 -12.2350  -8.0869  -3.4638   1.6011   6.7484   8.6181   9.9001
    11.3228  12.0500  12.3575  14.2950

          k = 0.1231 0.5575 0.0000 (  2790 PWs)   bands (ev):

   -14.9272 -12.8416  -8.2297  -3.1386   1.2319   6.6467  10.1692  10.4292
    10.7153  11.8849  12.8148  13.1130

          k = 0.1828 0.3140 0.0000 (  2778 PWs)   bands (ev):

   -17.3433  -9.6561  -7.1499  -5.1954   3.9831   5.7222   7.2296   8.4728
     8.6268   9.7760  12.5617  14.8453

          k = 0.1830 0.3836 0.0000 (  2776 PWs)   bands (ev):

   -16.5345 -10.5792  -8.1300  -4.3241   2.7951   6.8888   8.3124   8.4487
     9.6484  11.1653  12.6064  15.3082

          k = 0.1833 0.4532 0.0000 (  2766 PWs)   bands (ev):

   -15.6256 -11.6107  -8.7904  -3.4331   1.7054   8.1669   8.3634   9.4734
    10.9943  12.1615  12.2590  14.6157

          k = 0.1835 0.5229 0.0000 (  2774 PWs)   bands (ev):

   -14.8092 -12.4858  -9.1396  -2.8098   1.0217   8.0840   9.8613  10.2412
    11.4931  12.1329  12.5282  13.8469

          k = 0.2437 0.4186 0.0000 (  2770 PWs)   bands (ev):

   -15.6664 -11.4546  -8.9831  -3.3224   1.5772   8.1546   9.3254   9.5676
    10.9056  11.3282  12.1134  15.8461

          k = 0.2440 0.4883 0.0000 (  2777 PWs)   bands (ev):

   -14.7789 -12.1178  -9.7804  -2.5002   0.7473   9.3742   9.8279   9.8932
    11.9846  12.1747  12.4847  14.1899

          k = 0.2442 0.5579 0.0000 (  2772 PWs)   bands (ev):

   -14.3276 -12.3651 -10.1861  -2.2576   0.5804   9.3547   9.7981  11.1402
    11.3762  12.9505  13.2234  13.9590

          k = 0.3046 0.5233 0.0000 (  2770 PWs)   bands (ev):

   -13.9982 -12.6275 -10.3969  -1.5829  -0.1687   9.7425  10.1046  11.2713
    12.2869  13.3021  13.4380  13.8752

          k =-0.0604 0.0346 0.0000 (  2758 PWs)   bands (ev):

   -19.5438  -7.7854  -5.3842  -2.9649   2.6466   4.2239   5.1522   5.4678
     8.4779   9.2734  10.1528  10.3547

          k = 0.0607 0.0350 0.0000 (  2758 PWs)   bands (ev):

   -19.5437  -7.7793  -5.4739  -2.8710   2.6486   4.2266   5.4573   5.4864
     7.9725   9.2178  10.1632  10.4929

          k =-0.1209 0.0692 0.0000 (  2786 PWs)   bands (ev):

   -19.2856  -7.4886  -5.9484  -3.8737   2.9984   4.5683   5.4154   5.8347
     8.5203   9.4829  10.4728  10.7148

          k = 0.1214 0.0701 0.0000 (  2786 PWs)   bands (ev):

   -19.2854  -7.4633  -6.2581  -3.5407   3.0056   4.5801   5.8097   6.7038
     7.6369   8.3379  10.4975  11.1362

          k =-0.1813 0.1038 0.0000 (  2782 PWs)   bands (ev):

   -18.8578  -7.0011  -6.8854  -4.9018   3.5851   5.1332   5.6023   6.4127
     7.3953  10.8692  10.9961  11.4675

          k = 0.1820 0.1051 0.0000 (  2782 PWs)   bands (ev):

   -18.8567  -7.3993  -6.9400  -4.3353   3.6000   5.1678   6.3909   7.0510
     7.1914   8.3990  11.0398  12.0521

          k =-0.2417 0.1384 0.0000 (  2772 PWs)   bands (ev):

   -18.2654  -8.1666  -6.3368  -5.7489   4.4042   5.6174   5.7003   6.2457
     7.2194  11.7038  12.2844  12.7234

          k = 0.2427 0.1401 0.0000 (  2772 PWs)   bands (ev):

   -18.2609  -8.7478  -6.2157  -5.0892   4.4302   5.5067   5.9900   6.7061
     7.2486  10.3415  11.7774  13.0424

          k =-0.3022 0.1730 0.0000 (  2766 PWs)   bands (ev):

   -17.5176  -9.6250  -6.3726  -5.5235   4.4417   5.3850   5.5905   7.0332
     8.2599  12.5483  13.3310  14.4313

          k = 0.3034 0.1751 0.0000 (  2766 PWs)   bands (ev):

   -17.5027 -10.1859  -5.7209  -5.3017   3.8426   5.4908   6.3307   7.0355
     8.2868  12.3742  12.6731  13.7796

          k =-0.3626 0.2076 0.0000 (  2788 PWs)   bands (ev):

   -16.6364 -11.0871  -6.8077  -4.6234   2.9978   5.3722   6.7613   8.2616
     9.5277  13.3459  13.4108  15.1637

          k = 0.3641 0.2102 0.0000 (  2788 PWs)   bands (ev):

   -16.5890 -11.6309  -6.1907  -4.2220   2.1660   6.0163   6.8015   8.3012
     9.5631  13.4497  13.5768  14.2893

          k =-0.4231 0.2422 0.0000 (  2782 PWs)   bands (ev):

   -15.6965 -12.3987  -7.0680  -3.7942   1.8111   5.2805   8.2646   9.6907
    11.0015  11.8548  12.8969  14.4072

          k = 0.4248 0.2452 0.0000 (  2782 PWs)   bands (ev):

   -15.5295 -13.0258  -6.4789  -3.0523   0.6147   5.8355   8.3117   9.7653
    11.0500  11.8626  13.1381  14.4936

          k = 0.4835-0.2768 0.0000 (  2788 PWs)   bands (ev):

   -15.1217 -13.1006  -7.1549  -3.4109   1.3039   5.2465   9.8654  10.0942
    11.0711  11.5238  12.5885  12.7973

          k =-0.4855-0.2802 0.0000 (  2788 PWs)   bands (ev):

   -14.3953 -14.2745  -6.5759  -2.2915  -0.2771   5.7731   9.9902  10.0566
    11.1597  11.7051  12.6569  12.8101

          k =-0.0602 0.1042 0.0000 (  2773 PWs)   bands (ev):

   -19.3715  -7.5936  -5.6539  -3.7200   2.8782   4.4512   5.1685   5.7154
     8.8227   9.6053  10.3526  10.3707

          k = 0.1211 0.0004 0.0000 (  2773 PWs)   bands (ev):

   -19.3714  -7.5746  -5.9264  -3.4294   2.8852   4.4594   5.6844   5.9403
     8.2408   8.6659  10.3827  10.8652

          k =-0.0599 0.1739 0.0000 (  2775 PWs)   bands (ev):

   -19.0287  -7.2083  -6.2699  -4.8250   3.3442   4.9055   5.4214   6.1903
     7.9333  10.6064  10.7573  11.1326

          k =-0.1206 0.1388 0.0000 (  2775 PWs)   bands (ev):

   -19.0287  -7.2074  -6.2933  -4.7958   3.3444   4.9060   5.4148   6.1900
     7.9277  10.6074  10.7574  11.1325

          k = 0.1818 0.0355 0.0000 (  2775 PWs)   bands (ev):

   -19.0280  -7.1552  -6.8794  -4.1697   3.3614   4.9292   6.1612   7.2249
     7.5887   7.8949  10.8206  11.7651

          k =-0.1216-0.1397 0.0000 (  2775 PWs)   bands (ev):

   -19.0279  -7.1565  -6.8629  -4.1940   3.3611   4.9286   6.1605   7.2871
     7.5973   7.8359  10.8196  11.7710

          k = 0.1816-0.0342 0.0000 (  2775 PWs)   bands (ev):

   -19.0282  -7.1754  -6.6826  -4.3883   3.3571   4.9180   6.1086   6.2603
     7.7096   9.1552  10.8098  11.6356

          k =-0.0597 0.2435 0.0000 (  2776 PWs)   bands (ev):

   -18.5189  -7.3170  -6.6392  -5.8247   4.0439   5.5655   5.6627   6.7384
     6.8826  11.2267  11.3475  12.8230

          k =-0.1811 0.1734 0.0000 (  2776 PWs)   bands (ev):

   -18.5189  -7.3614  -6.6367  -5.7703   4.0442   5.5680   5.6523   6.7239
     6.8826  11.2272  11.3482  12.8227

          k = 0.2425 0.0705 0.0000 (  2776 PWs)   bands (ev):

   -18.5159  -8.0991  -6.5318  -4.9686   4.0741   5.6275   6.1969   6.8522
     7.3422   9.0331  11.4558  12.8597

          k =-0.1823-0.1747 0.0000 (  2776 PWs)   bands (ev):

   -18.5158  -8.0864  -6.5336  -4.9874   4.0738   5.6265   6.2065   6.8515
     7.3669   9.0050  11.4537  12.8688

          k = 0.2420-0.0688 0.0000 (  2776 PWs)   bands (ev):

   -18.5175  -7.7215  -6.5915  -5.3970   4.0639   5.5614   6.2182   6.5084
     6.8728  10.4739  11.4308  12.7858

          k =-0.0595 0.3131 0.0000 (  2779 PWs)   bands (ev):

   -17.8492  -8.7294  -6.5170  -5.9058   4.9668   5.2363   5.7666   6.5580
     7.8016  12.0792  12.1705  14.2933

          k =-0.2415 0.2080 0.0000 (  2779 PWs)   bands (ev):

   -17.8491  -8.7711  -6.4628  -5.9006   4.9669   5.2204   5.7548   6.5542
     7.8021  12.0814  12.1741  14.2921

          k = 0.3032 0.1055 0.0000 (  2779 PWs)   bands (ev):

   -17.8391  -9.4672  -5.7127  -5.6869   4.6084   5.0211   6.5663   6.8931
     7.8245  10.8779  12.2588  13.8907

          k =-0.2430-0.2097 0.0000 (  2779 PWs)   bands (ev):

   -17.8391  -9.4589  -5.7152  -5.6995   4.6175   5.0207   6.5653   6.9027
     7.8251  10.8558  12.2552  13.9018

          k = 0.3024-0.1034 0.0000 (  2779 PWs)   bands (ev):

   -17.8459  -9.0051  -6.2223  -5.8426   4.9709   5.0036   6.0887   6.6016
     7.7980  11.9493  12.2086  14.0537

          k =-0.0592 0.3828 0.0000 (  2779 PWs)   bands (ev):

   -17.0344 -10.2349  -7.0012  -5.0485   3.7852   5.6717   6.2067   7.6565
     8.9513  12.8329  13.0868  15.3684

          k =-0.3019 0.2426 0.0000 (  2779 PWs)   bands (ev):

   -17.0335 -10.2706  -6.9523  -5.0384   3.7580   5.6592   6.2066   7.6556
     8.9523  12.8396  13.0944  15.3637

          k = 0.3639 0.1405 0.0000 (  2779 PWs)   bands (ev):

   -17.0037 -10.8907  -6.2559  -4.7138   2.9563   6.1874   6.5645   7.7181
     8.9836  12.6101  13.1333  14.4717

          k =-0.3037-0.2448 0.0000 (  2779 PWs)   bands (ev):

   -17.0038 -10.8857  -6.2636  -4.7168   2.9645   6.1865   6.5707   7.7165
     8.9838  12.5845  13.1277  14.4871

          k = 0.3629-0.1380 0.0000 (  2779 PWs)   bands (ev):

   -17.0272 -10.4056  -6.8176  -4.9704   3.5450   5.8980   6.1860   7.7142
     8.9550  13.0193  13.1418  15.2675

          k =-0.0590 0.4524 0.0000 (  2777 PWs)   bands (ev):

   -16.1140 -11.6610  -7.3192  -4.1611   2.4333   5.6492   7.5700   8.9687
    10.3219  12.7258  13.1637  14.8069

          k =-0.3624 0.2772 0.0000 (  2777 PWs)   bands (ev):

   -16.1106 -11.6949  -7.2737  -4.1428   2.3945   5.6350   7.5711   8.9693
    10.3235  12.7258  13.1800  14.8100

          k = 0.4245 0.1756 0.0000 (  2777 PWs)   bands (ev):

   -16.0180 -12.2994  -6.6458  -3.5730   1.3410   6.2979   7.6155   9.0752
    10.3667  12.6972  13.5335  14.7549

          k =-0.3643-0.2798 0.0000 (  2777 PWs)   bands (ev):

   -16.0184 -12.2966  -6.6498  -3.5766   1.3478   6.3006   7.6157   9.0730
    10.3669  12.6897  13.5322  14.7444

          k = 0.4233-0.1726 0.0000 (  2777 PWs)   bands (ev):

   -16.0998 -11.7695  -7.2067  -4.0754   2.2381   5.7475   7.5768   9.0456
    10.3308  12.7335  13.2187  14.8317

          k =-0.0587 0.5220 0.0000 (  2787 PWs)   bands (ev):

   -15.2609 -12.7843  -7.4716  -3.4854   1.4959   5.6283   9.1703  10.4155
    10.9751  11.9138  12.1831  13.6195

          k =-0.4228 0.3118 0.0000 (  2787 PWs)   bands (ev):

   -15.2492 -12.8247  -7.4272  -3.4559   1.4439   5.6133   9.1721  10.4187
    10.9762  11.9148  12.1930  13.6213

          k = 0.4852 0.2106 0.0000 (  2787 PWs)   bands (ev):

   -14.8955 -13.6420  -6.8437  -2.4629  -0.0175   6.1751   9.2275  10.5790
    11.0016  11.9540  12.3410  13.6665

          k =-0.4250-0.3148 0.0000 (  2787 PWs)   bands (ev):

   -14.8962 -13.6405  -6.8449  -2.4658  -0.0135   6.1760   9.2278  10.5761
    11.0004  11.9546  12.3449  13.6641

          k = 0.4837-0.2072 0.0000 (  2787 PWs)   bands (ev):

   -15.2388 -12.8544  -7.4069  -3.4221   1.3802   5.6473   9.1835  10.5154
    10.9647  11.9234  12.0724  13.6191

          k =-0.1204 0.2085 0.0000 (  2767 PWs)   bands (ev):

   -18.6037  -6.8747  -6.7380  -6.0100   3.9244   5.4684   5.7813   6.7803
     6.9750  10.6749  11.2171  12.9558

          k = 0.2422 0.0009 0.0000 (  2767 PWs)   bands (ev):

   -18.6015  -7.6859  -6.6575  -5.1589   3.9524   5.4911   6.5506   6.7464
     7.3935   8.7692  11.3377  12.8630

          k =-0.1201 0.2781 0.0000 (  2780 PWs)   bands (ev):

   -18.0161  -7.8834  -7.0216  -6.0938   4.7363   5.7445   6.2196   6.2708
     7.5900  11.0731  11.7982  14.0662

          k =-0.1808 0.2431 0.0000 (  2780 PWs)   bands (ev):

   -18.0161  -7.9238  -6.9767  -6.0921   4.7364   5.7406   6.2150   6.2675
     7.5902  11.0737  11.7989  14.0659

          k = 0.3029 0.0359 0.0000 (  2780 PWs)   bands (ev):

   -18.0090  -8.8669  -5.9794  -5.9412   4.7826   5.1219   6.3331   7.5564
     8.0713   9.2130  12.0209  13.9398

          k =-0.1825-0.2443 0.0000 (  2780 PWs)   bands (ev):

   -18.0089  -8.8429  -6.0124  -5.9457   4.7820   5.1396   6.3321   7.5557
     8.1386   9.1365  12.0151  13.9438

          k = 0.3027-0.0337 0.0000 (  2780 PWs)   bands (ev):

   -18.0109  -8.6611  -6.2128  -5.9840   4.7775   5.2366   6.3599   7.2974
     7.5678  10.0533  12.0075  13.9553

          k =-0.1199 0.3477 0.0000 (  2776 PWs)   bands (ev):

   -17.2766  -9.3275  -7.5916  -5.3014   4.3933   5.7607   6.5192   7.2543
     8.6184  11.8483  12.3597  15.0564

          k =-0.2413 0.2777 0.0000 (  2776 PWs)   bands (ev):

   -17.2763  -9.3653  -7.5465  -5.2965   4.3784   5.7602   6.5120   7.2535
     8.6192  11.8516  12.3636  15.0546

          k = 0.3636 0.0709 0.0000 (  2776 PWs)   bands (ev):

   -17.2559 -10.1665  -6.6882  -5.0376   3.6050   5.8446   7.3538   7.7284
     8.6407  10.8276  12.7440  14.8674

          k =-0.2432-0.2794 0.0000 (  2776 PWs)   bands (ev):

   -17.2561 -10.1511  -6.7097  -5.0434   3.6226   5.8438   7.3511   7.7503
     8.6421  10.7855  12.7337  14.8728

          k = 0.3631-0.0683 0.0000 (  2776 PWs)   bands (ev):

   -17.2656  -9.8177  -7.0831  -5.1627   3.9150   5.8343   7.0971   7.3614
     8.6108  11.5128  12.6905  14.9592

          k =-0.1196 0.4174 0.0000 (  2777 PWs)   bands (ev):

   -16.4094 -10.7987  -7.9696  -4.4169   3.0182   6.5116   7.1522   8.4291
     9.8697  12.6276  12.6409  15.2244

          k =-0.3017 0.3123 0.0000 (  2777 PWs)   bands (ev):

   -16.4078 -10.8325  -7.9277  -4.4061   2.9924   6.5011   7.1528   8.4294
     9.8713  12.6329  12.6527  15.2332

          k = 0.4243 0.1059 0.0000 (  2777 PWs)   bands (ev):

   -16.3503 -11.5176  -7.2118  -3.9683   2.0406   7.1153   7.4652   8.5813
     9.9060  12.2818  13.1333  14.8731

          k =-0.3039-0.3144 0.0000 (  2777 PWs)   bands (ev):

   -16.3509 -11.5086  -7.2241  -3.9755   2.0562   7.1135   7.4781   8.5773
     9.9065  12.2473  13.1237  14.8802

          k = 0.4235-0.1030 0.0000 (  2777 PWs)   bands (ev):

   -16.3884 -11.0820  -7.6844  -4.2573   2.6096   6.8903   7.1201   8.5736
     9.8764  12.6548  12.9111  15.1688

          k =-0.1194 0.4870 0.0000 (  2779 PWs)   bands (ev):

   -15.4920 -12.1137  -8.1857  -3.5796   1.8333   6.5914   8.6052   9.7115
    11.3105  12.0574  12.4873  14.2452

          k =-0.3621 0.3469 0.0000 (  2779 PWs)   bands (ev):

   -15.4858 -12.1496  -8.1448  -3.5587   1.7934   6.5782   8.6070   9.7143
    11.3151  12.0549  12.5047  14.2596

          k = 0.4850 0.1410 0.0000 (  2779 PWs)   bands (ev):

   -15.3044 -12.8536  -7.5291  -2.7954   0.5490   7.2496   8.6529   9.9478
    11.3754  12.0105  12.7626  14.3259

          k =-0.3646-0.3494 0.0000 (  2779 PWs)   bands (ev):

   -15.3057 -12.8485  -7.5347  -2.8034   0.5613   7.2540   8.6538   9.9419
    11.3762  12.0018  12.7677  14.3123

          k = 0.4840-0.1376 0.0000 (  2779 PWs)   bands (ev):

   -15.4576 -12.2753  -8.0412  -3.4362   1.5504   6.7313   8.6197   9.9084
    11.3273  12.0532  12.3697  14.3197

          k =-0.4226 0.3815 0.0000 (  2790 PWs)   bands (ev):

   -14.9114 -12.8873  -8.1875  -3.1069   1.1787   6.6316  10.1765  10.4256
    10.7276  11.8892  12.8257  13.1078

          k = 0.5457 0.1760 0.0000 (  2790 PWs)   bands (ev):

   -14.2250 -14.0323  -7.6367  -1.9873  -0.3678   7.1903  10.2964  10.3708
    10.9703  12.0534  12.9355  13.0736

          k =-0.1806 0.3127 0.0000 (  2778 PWs)   bands (ev):

   -17.3579  -8.4596  -8.3709  -5.3854   4.6378   5.6582   6.9740   7.1037
     8.5258  11.1613  12.1686  14.9409

          k = 0.3634 0.0013 0.0000 (  2778 PWs)   bands (ev):

   -17.3431  -9.6907  -7.1055  -5.1872   3.9568   5.7230   7.2324   8.4523
     8.5710   9.8692  12.5752  14.8421

          k =-0.1803 0.3823 0.0000 (  2776 PWs)   bands (ev):

   -16.5617  -9.8427  -8.8657  -4.5511   3.4087   6.7828   7.6078   8.1218
     9.6691  11.6473  12.2020  15.5064

          k =-0.2410 0.3473 0.0000 (  2776 PWs)   bands (ev):

   -16.5613  -9.8773  -8.8282  -4.5476   3.3994   6.7821   7.6039   8.1220
     9.6702  11.6507  12.2065  15.5110

          k = 0.4240 0.0363 0.0000 (  2776 PWs)   bands (ev):

   -16.5221 -10.8287  -7.8568  -4.2158   2.5626   6.8950   8.3188   8.8374
     9.6875  10.8007  12.7100  15.4234

          k =-0.2435-0.3490 0.0000 (  2776 PWs)   bands (ev):

   -16.5229 -10.8052  -7.8861  -4.2264   2.5882   6.8940   8.3134   8.8886
     9.6915  10.7199  12.6938  15.4319

          k = 0.4238-0.0333 0.0000 (  2776 PWs)   bands (ev):

   -16.5332 -10.6206  -8.0799  -4.3100   2.7605   6.8897   8.3178   8.4079
     9.6515  11.2281  12.6271  15.3042

          k =-0.1801 0.4520 0.0000 (  2766 PWs)   bands (ev):

   -15.6705 -11.2311  -9.1404  -3.6656   2.1906   7.7214   8.3631   9.1927
    11.0006  12.1157  12.2486  14.6518

          k =-0.3014 0.3819 0.0000 (  2766 PWs)   bands (ev):

   -15.6679 -11.2649  -9.1035  -3.6550   2.1685   7.7113   8.3642   9.1951
    11.0048  12.1263  12.2524  14.6659

          k = 0.4847 0.0713 0.0000 (  2766 PWs)   bands (ev):

   -15.5606 -12.0468  -8.3647  -3.0972   1.1368   8.2556   8.7272   9.5086
    11.0421  12.0265  12.4219  14.6326

          k =-0.3042-0.3840 0.0000 (  2766 PWs)   bands (ev):

   -15.5625 -12.0330  -8.3804  -3.1102   1.1595   8.2533   8.7514   9.4997
    11.0439  11.9774  12.4195  14.6323

          k = 0.4842-0.0679 0.0000 (  2766 PWs)   bands (ev):

   -15.6211 -11.6533  -8.7429  -3.4103   1.6616   8.1486   8.3558   9.4842
    10.9996  12.1746  12.3012  14.6338

          k =-0.1798 0.5216 0.0000 (  2774 PWs)   bands (ev):

   -14.8511 -12.3470  -9.2414  -2.9323   1.2316   7.9528   9.8515  10.0303
    11.4942  12.3202  12.5294  13.7884

          k =-0.3619 0.4165 0.0000 (  2774 PWs)   bands (ev):

   -14.8407 -12.3885  -9.2029  -2.9089   1.1921   7.9370   9.8559  10.0404
    11.4969  12.3303  12.5341  13.8003

          k = 0.5454 0.1064 0.0000 (  2774 PWs)   bands (ev):

   -14.4853 -13.2671  -8.6165  -1.9311  -0.1901   8.5644   9.8928  10.4458
    11.5029  12.4040  12.5628  13.9058

          k =-0.3648-0.4191 0.0000 (  2774 PWs)   bands (ev):

   -14.4891 -13.2597  -8.6214  -1.9439  -0.1739   8.5693   9.8969  10.4378
    11.4913  12.4126  12.5670  13.8900

          k = 0.5447-0.1025 0.0000 (  2774 PWs)   bands (ev):

   -14.7961 -12.5326  -9.0974  -2.7786   0.9711   8.0633   9.8640  10.2595
    11.5036  12.1343  12.5301  13.8714

          k =-0.2408 0.4169 0.0000 (  2770 PWs)   bands (ev):

   -15.7341 -10.4486  -9.9554  -3.6962   2.3406   7.9736   8.7084   8.9918
    10.9427  11.7333  11.9194  16.0425

          k = 0.4845 0.0017 0.0000 (  2770 PWs)   bands (ev):

   -15.6635 -11.4878  -8.9465  -3.3045   1.5432   8.1554   9.3365   9.5008
    10.9142  11.4195  12.1221  15.8274

          k =-0.2405 0.4866 0.0000 (  2777 PWs)   bands (ev):

   -14.8766 -11.5607 -10.2564  -2.8371   1.2998   8.9732   9.5467   9.8164
    11.9662  12.2810  12.4278  14.2365

          k =-0.3012 0.4515 0.0000 (  2777 PWs)   bands (ev):

   -14.8734 -11.5917 -10.2262  -2.8286   1.2851   8.9637   9.5509   9.8176
    11.9815  12.2850  12.4197  14.2542

          k = 0.5452 0.0367 0.0000 (  2777 PWs)   bands (ev):

   -14.6864 -12.4720  -9.4940  -2.1753   0.2894   9.4782   9.9766   9.9864
    12.0651  12.2788  12.3608  14.3488

          k =-0.3044-0.4537 0.0000 (  2777 PWs)   bands (ev):

   -14.6920 -12.4512  -9.5123  -2.1975   0.3204   9.4809   9.9729  10.0125
    11.9957  12.2841  12.3673  14.3451

          k = 0.5449-0.0329 0.0000 (  2777 PWs)   bands (ev):

   -14.7703 -12.1606  -9.7408  -2.4723   0.7045   9.3516   9.8108   9.9109
    12.0448  12.1734  12.4850  14.2142

          k =-0.3616 0.4861 0.0000 (  2772 PWs)   bands (ev):

   -14.3143 -12.4107 -10.1497  -2.2324   0.5437   9.3316   9.8102  11.1574
    11.3702  12.9545  13.2616  13.9494

          k = 0.6058 0.0718 0.0000 (  2772 PWs)   bands (ev):

   -13.8574 -13.3075  -9.6787  -1.0851  -0.8394   9.7572  10.0799  11.2346
    11.3243  13.0948  13.6276  13.7025

          k =-0.3009 0.5212 0.0000 (  2770 PWs)   bands (ev):

   -14.1701 -12.1069 -10.7575  -2.0123   0.3831   9.5678   9.8689  11.3779
    12.0123  13.3029  13.4831  14.1192

          k = 0.6056 0.0021 0.0000 (  2770 PWs)   bands (ev):

   -13.9875 -12.6535 -10.3798  -1.5568  -0.2002   9.7498  10.0886  11.2548
    12.3387  13.3009  13.4378  13.8533

     the Fermi energy is    -0.9622 ev

!    total energy              =     -22.76527909 Ry
     Harris-Foulkes estimate   =     -22.76527909 Ry
     estimated scf accuracy    <          9.8E-10 Ry

     The total energy is the sum of the following terms:

     one-electron contribution =     -85.00537400 Ry
     hartree contribution      =      44.14790194 Ry
     xc contribution           =      -6.89509546 Ry
     ewald contribution        =      24.98743439 Ry
     smearing contrib. (-TS)   =      -0.00014596 Ry

     convergence has been achieved in  16 iterations

     Forces acting on atoms (Ry/au):

     atom   1 type  1   force =    -0.15118957   -0.09183195    0.00000000
     atom   2 type  1   force =     0.15118957    0.09183195    0.00000000

     Total force =     0.250166     Total SCF correction =     0.000029


     entering subroutine stress ...

          total   stress  (Ry/bohr**3)                   (kbar)     P=  -63.73
  -0.00055724   0.00015592   0.00000000        -81.97     22.94      0.00
   0.00015592  -0.00074241   0.00000000         22.94   -109.21      0.00
   0.00000000   0.00000000  -0.00000010          0.00      0.00     -0.02


     number of scf cycles    =   2
     number of bfgs steps    =   1

     enthalpy old            =     -22.7912589962 Ry
     enthalpy new            =     -22.7652790931 Ry

     CASE: enthalpy_new > enthalpy_old

     new trust radius        =       0.0173768364 bohr
     new conv_thr            =       0.0000000100 Ry

     new unit-cell volume =    355.77380 a.u.^3 (    52.72024 Ang^3 )

CELL_PARAMETERS (alat=  4.64872800)
   1.002806480  -0.000319984   0.000000000
  -0.501680354   0.868951116   0.000000000
   0.000000000   0.000000000   4.064799199

ATOMIC_POSITIONS (angstrom)
C        0.003546157   0.002111579   0.000000000
C        1.230803323   0.710407235   0.000000000



     Writing output data file graphene.save
     NEW-OLD atomic charge density approx. for the potential
     NEW k-points:
        k(    1) = (   0.0000000   0.0000000   0.0000000), wk =   0.0078125
        k(    2) = (   0.0000230   0.0719390   0.0000000), wk =   0.0156250
        k(    3) = (   0.0000459   0.1438781   0.0000000), wk =   0.0156250
        k(    4) = (   0.0000689   0.2158171   0.0000000), wk =   0.0156250
        k(    5) = (   0.0000918   0.2877562   0.0000000), wk =   0.0156250
        k(    6) = (   0.0001148   0.3596952   0.0000000), wk =   0.0156250
        k(    7) = (   0.0001377   0.4316343   0.0000000), wk =   0.0156250
        k(    8) = (   0.0001607   0.5035733   0.0000000), wk =   0.0156250
        k(    9) = (  -0.0001836  -0.5755124   0.0000000), wk =   0.0078125
        k(   10) = (   0.0623595   0.1079285   0.0000000), wk =   0.0156250
        k(   11) = (   0.0623825   0.1798675   0.0000000), wk =   0.0156250
        k(   12) = (   0.0624054   0.2518065   0.0000000), wk =   0.0156250
        k(   13) = (   0.0624284   0.3237456   0.0000000), wk =   0.0156250
        k(   14) = (   0.0624513   0.3956846   0.0000000), wk =   0.0156250
        k(   15) = (   0.0624743   0.4676237   0.0000000), wk =   0.0156250
        k(   16) = (   0.0624973   0.5395627   0.0000000), wk =   0.0156250
        k(   17) = (   0.1247190   0.2158569   0.0000000), wk =   0.0156250
        k(   18) = (   0.1247420   0.2877960   0.0000000), wk =   0.0156250
        k(   19) = (   0.1247650   0.3597350   0.0000000), wk =   0.0156250
        k(   20) = (   0.1247879   0.4316740   0.0000000), wk =   0.0156250
        k(   21) = (   0.1248109   0.5036131   0.0000000), wk =   0.0156250
        k(   22) = (   0.1248338   0.5755521   0.0000000), wk =   0.0156250
        k(   23) = (   0.1870786   0.3237854   0.0000000), wk =   0.0156250
        k(   24) = (   0.1871015   0.3957244   0.0000000), wk =   0.0156250
        k(   25) = (   0.1871245   0.4676635   0.0000000), wk =   0.0156250
        k(   26) = (   0.1871474   0.5396025   0.0000000), wk =   0.0156250
        k(   27) = (   0.2494381   0.4317138   0.0000000), wk =   0.0156250
        k(   28) = (   0.2494611   0.5036529   0.0000000), wk =   0.0156250
        k(   29) = (   0.2494840   0.5755919   0.0000000), wk =   0.0156250
        k(   30) = (   0.3117976   0.5396423   0.0000000), wk =   0.0156250
        k(   31) = (  -0.0623136   0.0359496   0.0000000), wk =   0.0156250
        k(   32) = (   0.0623366   0.0359894   0.0000000), wk =   0.0156250
        k(   33) = (  -0.1246272   0.0718993   0.0000000), wk =   0.0156250
        k(   34) = (   0.1246731   0.0719788   0.0000000), wk =   0.0156250
        k(   35) = (  -0.1869408   0.1078489   0.0000000), wk =   0.0156250
        k(   36) = (   0.1870097   0.1079682   0.0000000), wk =   0.0156250
        k(   37) = (  -0.2492545   0.1437986   0.0000000), wk =   0.0156250
        k(   38) = (   0.2493463   0.1439576   0.0000000), wk =   0.0156250
        k(   39) = (  -0.3115681   0.1797482   0.0000000), wk =   0.0156250
        k(   40) = (   0.3116828   0.1799470   0.0000000), wk =   0.0156250
        k(   41) = (  -0.3738817   0.2156979   0.0000000), wk =   0.0156250
        k(   42) = (   0.3740194   0.2159364   0.0000000), wk =   0.0156250
        k(   43) = (  -0.4361953   0.2516475   0.0000000), wk =   0.0156250
        k(   44) = (   0.4363560   0.2519258   0.0000000), wk =   0.0156250
        k(   45) = (   0.4985089  -0.2875972   0.0000000), wk =   0.0078125
        k(   46) = (  -0.4986926  -0.2879152   0.0000000), wk =   0.0078125
        k(   47) = (  -0.0622907   0.1078887   0.0000000), wk =   0.0156250
        k(   48) = (   0.1246502   0.0000398   0.0000000), wk =   0.0156250
        k(   49) = (  -0.0622677   0.1798277   0.0000000), wk =   0.0156250
        k(   50) = (  -0.1246043   0.1438383   0.0000000), wk =   0.0156250
        k(   51) = (   0.1869868   0.0360292   0.0000000), wk =   0.0156250
        k(   52) = (  -0.1246961  -0.1439179   0.0000000), wk =   0.0156250
        k(   53) = (   0.1869638  -0.0359099   0.0000000), wk =   0.0156250
        k(   54) = (  -0.0622448   0.2517668   0.0000000), wk =   0.0156250
        k(   55) = (  -0.1869179   0.1797880   0.0000000), wk =   0.0156250
        k(   56) = (   0.2493233   0.0720186   0.0000000), wk =   0.0156250
        k(   57) = (  -0.1870327  -0.1799073   0.0000000), wk =   0.0156250
        k(   58) = (   0.2492774  -0.0718595   0.0000000), wk =   0.0156250
        k(   59) = (  -0.0622218   0.3237058   0.0000000), wk =   0.0156250
        k(   60) = (  -0.2492315   0.2157376   0.0000000), wk =   0.0156250
        k(   61) = (   0.3116599   0.1080080   0.0000000), wk =   0.0156250
        k(   62) = (  -0.2493692  -0.2158967   0.0000000), wk =   0.0156250
        k(   63) = (   0.3115910  -0.1078092   0.0000000), wk =   0.0156250
        k(   64) = (  -0.0621988   0.3956449   0.0000000), wk =   0.0156250
        k(   65) = (  -0.3115451   0.2516873   0.0000000), wk =   0.0156250
        k(   66) = (   0.3739965   0.1439974   0.0000000), wk =   0.0156250
        k(   67) = (  -0.3117058  -0.2518861   0.0000000), wk =   0.0156250
        k(   68) = (   0.3739046  -0.1437588   0.0000000), wk =   0.0156250
        k(   69) = (  -0.0621759   0.4675839   0.0000000), wk =   0.0156250
        k(   70) = (  -0.3738587   0.2876369   0.0000000), wk =   0.0156250
[...]

          k =-0.3746 0.2163 0.0000 (  2788 PWs)   bands (ev):

   -16.7230 -11.1698  -6.5439  -4.3718   3.3472   7.0635   7.2989   8.7350
     9.9872  14.0445  14.5966  16.1381

          k = 0.3747 0.2163 0.0000 (  2788 PWs)   bands (ev):

   -16.7230 -11.1696  -6.5444  -4.3718   3.3474   7.0633   7.2987   8.7351
     9.9873  14.0444  14.5968  16.1382

          k =-0.4371 0.2524 0.0000 (  2782 PWs)   bands (ev):

   -15.6129 -12.6823  -6.8145  -3.3387   1.8980   7.0255   8.8185  10.2946
    11.5826  12.6649  13.8304  15.3602

          k = 0.4371 0.2524 0.0000 (  2782 PWs)   bands (ev):

   -15.6128 -12.6821  -6.8149  -3.3388   1.8984   7.0251   8.8186  10.2946
    11.5826  12.6651  13.8304  15.3603

          k = 0.4995-0.2884 0.0000 (  2788 PWs)   bands (ev):

   -14.7231 -13.7087  -6.9062  -2.8155   1.2313   6.9818  10.5827  10.7241
    11.8488  12.2559  13.3588  13.4414

          k =-0.4995-0.2884 0.0000 (  2788 PWs)   bands (ev):

   -14.7231 -13.7084  -6.9066  -2.8156   1.2317   6.9813  10.5828  10.7243
    11.8489  12.2560  13.3589  13.4415

          k =-0.0624 0.1082 0.0000 (  2773 PWs)   bands (ev):

   -19.6992  -7.7579  -4.5444  -4.1147   3.0475   4.6342   5.8543   8.0537
     8.8667  10.0660  10.5601  12.4015

          k = 0.1249 0.0000 0.0000 (  2773 PWs)   bands (ev):

   -19.6992  -7.7579  -4.5444  -4.1148   3.0475   4.6342   5.8543   8.0537
     8.8665  10.0660  10.5601  12.4015

          k =-0.0624 0.1803 0.0000 (  2775 PWs)   bands (ev):

   -19.3316  -7.3205  -5.6717  -4.7698   3.5516   5.1314   6.3511   8.1982
     8.9627   9.9533  11.0225  12.8909

          k =-0.1249 0.1442 0.0000 (  2775 PWs)   bands (ev):

   -19.3316  -7.3205  -5.6719  -4.7696   3.5516   5.1315   6.3511   8.1983
     8.9626   9.9530  11.0225  12.8909

          k = 0.1873 0.0361 0.0000 (  2775 PWs)   bands (ev):

   -19.3316  -7.3205  -5.6716  -4.7699   3.5517   5.1315   6.3511   8.1980
     8.9627   9.9531  11.0225  12.8909

          k =-0.1249-0.1442 0.0000 (  2775 PWs)   bands (ev):

   -19.3316  -7.3205  -5.6714  -4.7702   3.5516   5.1315   6.3511   8.1976
     8.9628   9.9536  11.0225  12.8909

          k = 0.1873-0.0360 0.0000 (  2775 PWs)   bands (ev):

   -19.3316  -7.3205  -5.6719  -4.7696   3.5516   5.1315   6.3511   8.1983
     8.9627   9.9527  11.0225  12.8909

          k =-0.0624 0.2524 0.0000 (  2776 PWs)   bands (ev):

   -18.7832  -7.1176  -6.6738  -5.4778   4.3071   5.8676   7.0897   7.5210
     8.1333  11.4715  11.7015  13.6144

          k =-0.1873 0.1803 0.0000 (  2776 PWs)   bands (ev):

   -18.7832  -7.1177  -6.6738  -5.4776   4.3071   5.8676   7.0897   7.5210
     8.1335  11.4713  11.7015  13.6144

          k = 0.2498 0.0721 0.0000 (  2776 PWs)   bands (ev):

   -18.7832  -7.1174  -6.6738  -5.4780   4.3072   5.8676   7.0897   7.5211
     8.1330  11.4714  11.7015  13.6144

          k =-0.1873-0.1803 0.0000 (  2776 PWs)   bands (ev):

   -18.7832  -7.1173  -6.6738  -5.4781   4.3072   5.8676   7.0897   7.5211
     8.1329  11.4717  11.7015  13.6144

          k = 0.2498-0.0721 0.0000 (  2776 PWs)   bands (ev):

   -18.7832  -7.1178  -6.6738  -5.4776   4.3071   5.8676   7.0897   7.5210
     8.1334  11.4709  11.7015  13.6144

          k =-0.0624 0.3245 0.0000 (  2779 PWs)   bands (ev):

   -18.0583  -8.7125  -6.1218  -5.8335   5.3119   5.8206   6.9068   7.8195
     8.2000  12.5666  13.1983  14.5700

          k =-0.2498 0.2163 0.0000 (  2779 PWs)   bands (ev):

   -18.0583  -8.7126  -6.1216  -5.8335   5.3119   5.8205   6.9068   7.8195
     8.2000  12.5666  13.1982  14.5700

          k = 0.3122 0.1082 0.0000 (  2779 PWs)   bands (ev):

   -18.0582  -8.7124  -6.1220  -5.8335   5.3119   5.8207   6.9068   7.8192
     8.2000  12.5666  13.1982  14.5701

          k =-0.2498-0.2163 0.0000 (  2779 PWs)   bands (ev):

   -18.0582  -8.7123  -6.1220  -5.8335   5.3119   5.8207   6.9068   7.8191
     8.2000  12.5666  13.1984  14.5701

          k = 0.3122-0.1082 0.0000 (  2779 PWs)   bands (ev):

   -18.0582  -8.7127  -6.1216  -5.8335   5.3119   5.8205   6.9068   7.8195
     8.2000  12.5666  13.1977  14.5700

          k =-0.0624 0.3966 0.0000 (  2779 PWs)   bands (ev):

   -17.1641 -10.3339  -6.6406  -4.8326   4.1341   6.5593   7.6770   8.1115
     9.3723  13.5279  14.5567  15.7387

          k =-0.3122 0.2524 0.0000 (  2779 PWs)   bands (ev):

   -17.1641 -10.3341  -6.6404  -4.8325   4.1339   6.5593   7.6770   8.1115
     9.3723  13.5279  14.5567  15.7387

          k = 0.3747 0.1442 0.0000 (  2779 PWs)   bands (ev):

   -17.1641 -10.3338  -6.6408  -4.8325   4.1341   6.5594   7.6766   8.1116
     9.3724  13.5279  14.5567  15.7388

          k =-0.3122-0.2524 0.0000 (  2779 PWs)   bands (ev):

   -17.1641 -10.3338  -6.6408  -4.8325   4.1342   6.5594   7.6765   8.1116
     9.3724  13.5279  14.5567  15.7388

          k = 0.3747-0.1442 0.0000 (  2779 PWs)   bands (ev):

   -17.1641 -10.3341  -6.6404  -4.8325   4.1339   6.5594   7.6770   8.1115
     9.3724  13.5279  14.5563  15.7387

          k =-0.0624 0.4687 0.0000 (  2777 PWs)   bands (ev):

   -16.1166 -11.8971  -7.0009  -3.7558   2.5420   7.4786   8.0877   9.5539
    10.8474  13.6899  14.1124  15.5951

          k =-0.3746 0.2884 0.0000 (  2777 PWs)   bands (ev):

   -16.1166 -11.8972  -7.0007  -3.7556   2.5418   7.4786   8.0877   9.5539
    10.8474  13.6899  14.1125  15.5952

          k = 0.4371 0.1803 0.0000 (  2777 PWs)   bands (ev):

   -16.1166 -11.8970  -7.0011  -3.7557   2.5420   7.4782   8.0878   9.5540
    10.8475  13.6900  14.1124  15.5953

          k =-0.3747-0.2884 0.0000 (  2777 PWs)   bands (ev):

   -16.1166 -11.8970  -7.0011  -3.7557   2.5421   7.4781   8.0878   9.5540
    10.8475  13.6900  14.1124  15.5953

          k = 0.4371-0.1803 0.0000 (  2777 PWs)   bands (ev):

   -16.1166 -11.8972  -7.0007  -3.7556   2.5417   7.4786   8.0877   9.5540
    10.8474  13.6898  14.1125  15.5952

          k =-0.0624 0.5408 0.0000 (  2787 PWs)   bands (ev):

   -14.9932 -13.2868  -7.1849  -2.8796   1.3935   7.4026   9.7965  11.1650
    11.7201  12.5561  12.9746  14.4373

          k =-0.4371 0.3245 0.0000 (  2787 PWs)   bands (ev):

   -14.9931 -13.2870  -7.1847  -2.8794   1.3932   7.4026   9.7966  11.1650
    11.7202  12.5561  12.9747  14.4374

          k = 0.4995 0.2163 0.0000 (  2787 PWs)   bands (ev):

   -14.9930 -13.2867  -7.1851  -2.8795   1.3936   7.4021   9.7967  11.1651
    11.7203  12.5562  12.9747  14.4375

          k =-0.4371-0.3245 0.0000 (  2787 PWs)   bands (ev):

   -14.9930 -13.2867  -7.1851  -2.8795   1.3936   7.4021   9.7967  11.1650
    11.7203  12.5562  12.9747  14.4375

          k = 0.4995-0.2163 0.0000 (  2787 PWs)   bands (ev):

   -14.9931 -13.2870  -7.1847  -2.8794   1.3932   7.4025   9.7966  11.1650
    11.7201  12.5561  12.9746  14.4373

          k =-0.1249 0.2163 0.0000 (  2767 PWs)   bands (ev):

   -18.8744  -6.7803  -6.6955  -5.6314   4.1818   5.7499   6.9743   7.7751
     8.7772  10.4179  11.5765  13.4987

          k = 0.2498 0.0000 0.0000 (  2767 PWs)   bands (ev):

   -18.8744  -6.7802  -6.6954  -5.6314   4.1818   5.7499   6.9743   7.7751
     8.7770  10.4175  11.5765  13.4988

          k =-0.1249 0.2884 0.0000 (  2780 PWs)   bands (ev):

   -18.2391  -7.9909  -6.4782  -6.0384   5.0624   6.3177   6.6304   7.8409
     9.0246  11.3942  12.3049  14.3348

          k =-0.1873 0.2524 0.0000 (  2780 PWs)   bands (ev):

   -18.2391  -7.9910  -6.4781  -6.0383   5.0624   6.3177   6.6304   7.8409
     9.0247  11.3941  12.3049  14.3348

          k = 0.3122 0.0361 0.0000 (  2780 PWs)   bands (ev):

   -18.2390  -7.9908  -6.4783  -6.0383   5.0625   6.3177   6.6304   7.8409
     9.0243  11.3940  12.3050  14.3349

          k =-0.1873-0.2524 0.0000 (  2780 PWs)   bands (ev):

   -18.2390  -7.9906  -6.4785  -6.0383   5.0624   6.3179   6.6304   7.8409
     9.0239  11.3945  12.3049  14.3349

          k = 0.3122-0.0360 0.0000 (  2780 PWs)   bands (ev):

   -18.2390  -7.9910  -6.4781  -6.0383   5.0624   6.3177   6.6304   7.8409
     9.0246  11.3937  12.3050  14.3349

          k =-0.1249 0.3605 0.0000 (  2776 PWs)   bands (ev):

   -17.4314  -9.4778  -7.1470  -5.1164   4.7585   6.1906   7.7104   8.7728
     9.0960  12.8298  13.0935  15.3895

          k =-0.2498 0.2884 0.0000 (  2776 PWs)   bands (ev):

   -17.4314  -9.4779  -7.1469  -5.1164   4.7584   6.1907   7.7104   8.7728
     9.0960  12.8297  13.0935  15.3895

          k = 0.3747 0.0721 0.0000 (  2776 PWs)   bands (ev):

   -17.4314  -9.4777  -7.1472  -5.1163   4.7586   6.1907   7.7105   8.7725
     9.0959  12.8296  13.0935  15.3896

          k =-0.2498-0.2884 0.0000 (  2776 PWs)   bands (ev):

   -17.4314  -9.4776  -7.1473  -5.1164   4.7587   6.1907   7.7105   8.7724
     9.0958  12.8298  13.0935  15.3896

          k = 0.3747-0.0721 0.0000 (  2776 PWs)   bands (ev):

   -17.4314  -9.4780  -7.1468  -5.1163   4.7584   6.1907   7.7105   8.7728
     9.0960  12.8292  13.0936  15.3895

          k =-0.1249 0.4326 0.0000 (  2777 PWs)   bands (ev):

   -16.4625 -11.0109  -7.6250  -4.0631   3.1759   7.5588   8.6949   9.0159
    10.3576  13.5793  13.8890  16.0366

          k =-0.3122 0.3245 0.0000 (  2777 PWs)   bands (ev):

   -16.4625 -11.0110  -7.6249  -4.0630   3.1757   7.5588   8.6949   9.0159
    10.3576  13.5794  13.8890  16.0367

          k = 0.4371 0.1082 0.0000 (  2777 PWs)   bands (ev):

   -16.4624 -11.0108  -7.6252  -4.0630   3.1759   7.5589   8.6944   9.0160
    10.3577  13.5793  13.8890  16.0367

          k =-0.3122-0.3245 0.0000 (  2777 PWs)   bands (ev):

   -16.4624 -11.0108  -7.6252  -4.0630   3.1760   7.5588   8.6943   9.0160
    10.3577  13.5793  13.8890  16.0367

          k = 0.4371-0.1081 0.0000 (  2777 PWs)   bands (ev):

   -16.4624 -11.0111  -7.6248  -4.0630   3.1757   7.5588   8.6949   9.0160
    10.3577  13.5794  13.8886  16.0367

          k =-0.1249 0.5047 0.0000 (  2779 PWs)   bands (ev):

   -15.3628 -12.4755  -7.9131  -3.0204   1.7877   8.5425   9.1896  10.4670
    11.9347  12.8893  13.3137  15.4291

          k =-0.3746 0.3605 0.0000 (  2779 PWs)   bands (ev):

   -15.3627 -12.4756  -7.9129  -3.0203   1.7875   8.5425   9.1896  10.4670
    11.9347  12.8893  13.3138  15.4291

          k = 0.4995 0.1442 0.0000 (  2779 PWs)   bands (ev):

   -15.3626 -12.4754  -7.9133  -3.0203   1.7877   8.5421   9.1897  10.4671
    11.9348  12.8894  13.3137  15.4292

          k =-0.3747-0.3605 0.0000 (  2779 PWs)   bands (ev):

   -15.3627 -12.4754  -7.9133  -3.0203   1.7878   8.5420   9.1897  10.4670
    11.9348  12.8894  13.3137  15.4292

          k = 0.4995-0.1442 0.0000 (  2779 PWs)   bands (ev):

   -15.3627 -12.4757  -7.9129  -3.0202   1.7874   8.5425   9.1897  10.4671
    11.9348  12.8892  13.3138  15.4289

          k =-0.4371 0.3966 0.0000 (  2790 PWs)   bands (ev):

   -14.4864 -13.4776  -8.0093  -2.4781   1.1253   8.5058  10.9098  11.0735
    11.5568  12.6340  13.6513  13.7746

          k = 0.5620 0.1803 0.0000 (  2790 PWs)   bands (ev):

   -14.4864 -13.4773  -8.0096  -2.4782   1.1257   8.5053  10.9099  11.0736
    11.5568  12.6341  13.6514  13.7748

          k =-0.1873 0.3245 0.0000 (  2778 PWs)   bands (ev):

   -17.5210  -8.9722  -7.5568  -5.2122   5.0088   6.0665   7.5663   8.8365
    10.0961  11.4149  12.9223  15.2710

          k = 0.3747 0.0000 0.0000 (  2778 PWs)   bands (ev):

   -17.5209  -8.9722  -7.5568  -5.2121   5.0088   6.0666   7.5664   8.8365
    10.0958  11.4146  12.9223  15.2711

          k =-0.1873 0.3966 0.0000 (  2776 PWs)   bands (ev):

   -16.6376 -10.1931  -8.3640  -4.2245   3.5919   7.3146   8.7214  10.0187
    10.4016  12.4216  13.1343  16.0290

          k =-0.2498 0.3605 0.0000 (  2776 PWs)   bands (ev):

   -16.6376 -10.1932  -8.3639  -4.2245   3.5918   7.3146   8.7214  10.0187
    10.4016  12.4216  13.1343  16.0290

          k = 0.4371 0.0361 0.0000 (  2776 PWs)   bands (ev):

   -16.6376 -10.1931  -8.3641  -4.2245   3.5919   7.3147   8.7214  10.0187
    10.4012  12.4215  13.1343  16.0290

          k =-0.2498-0.3605 0.0000 (  2776 PWs)   bands (ev):

   -16.6376 -10.1929  -8.3643  -4.2245   3.5921   7.3147   8.7214  10.0186
    10.4010  12.4217  13.1342  16.0291

          k = 0.4371-0.0360 0.0000 (  2776 PWs)   bands (ev):

   -16.6376 -10.1933  -8.3639  -4.2244   3.5918   7.3147   8.7214  10.0188
    10.4015  12.4211  13.1344  16.0290

          k =-0.1873 0.4687 0.0000 (  2766 PWs)   bands (ev):

   -15.6073 -11.5653  -8.8418  -3.1463   2.1960   8.7952   9.9713  10.1815
    11.5723  12.9023  13.3381  15.8649

          k =-0.3122 0.3966 0.0000 (  2766 PWs)   bands (ev):

   -15.6073 -11.5655  -8.8417  -3.1462   2.1959   8.7952   9.9713  10.1815
    11.5723  12.9024  13.3381  15.8650

          k = 0.4995 0.0721 0.0000 (  2766 PWs)   bands (ev):

   -15.6072 -11.5653  -8.8419  -3.1462   2.1960   8.7953   9.9713  10.1810
    11.5724  12.9023  13.3381  15.8650

          k =-0.3122-0.3966 0.0000 (  2766 PWs)   bands (ev):

   -15.6072 -11.5652  -8.8420  -3.1463   2.1961   8.7953   9.9713  10.1809
    11.5724  12.9023  13.3381  15.8651

          k = 0.4995-0.0721 0.0000 (  2766 PWs)   bands (ev):

   -15.6072 -11.5655  -8.8416  -3.1462   2.1958   8.7953   9.9713  10.1815
    11.5724  12.9024  13.3377  15.8648

          k =-0.1873 0.5408 0.0000 (  2774 PWs)   bands (ev):

   -14.5100 -12.8643  -9.0651  -2.2251   1.1046  10.0655  10.5101  10.9150
    12.2857  12.9847  13.2295  14.8570

          k =-0.3746 0.4326 0.0000 (  2774 PWs)   bands (ev):

   -14.5100 -12.8645  -9.0649  -2.2249   1.1043  10.0654  10.5101  10.9150
    12.2857  12.9848  13.2295  14.8570

          k = 0.5620 0.1082 0.0000 (  2774 PWs)   bands (ev):

   -14.5099 -12.8643  -9.0652  -2.2250   1.1046  10.0650  10.5102  10.9150
    12.2858  12.9848  13.2297  14.8571

          k =-0.3747-0.4326 0.0000 (  2774 PWs)   bands (ev):

   -14.5099 -12.8642  -9.0652  -2.2251   1.1046  10.0649  10.5102  10.9149
    12.2858  12.9848  13.2297  14.8571

          k = 0.5620-0.1081 0.0000 (  2774 PWs)   bands (ev):

   -14.5099 -12.8645  -9.0649  -2.2249   1.1043  10.0654  10.5102  10.9150
    12.2856  12.9848  13.2296  14.8569

          k =-0.2498 0.4326 0.0000 (  2770 PWs)   bands (ev):

   -15.6910 -10.9867  -9.4399  -3.1949   2.3722   8.6735   9.7821  11.3591
    11.8857  12.1993  12.6746  16.6606

          k = 0.4995 0.0000 0.0000 (  2770 PWs)   bands (ev):

   -15.6909 -10.9868  -9.4399  -3.1948   2.3722   8.6736   9.7822  11.3591
    11.8855  12.1990  12.6746  16.6607

          k =-0.2498 0.5047 0.0000 (  2777 PWs)   bands (ev):

   -14.6265 -12.0353 -10.0477  -2.1230   1.1871  10.2386  10.4174  11.7963
    12.8151  12.8987  13.1378  15.4769

          k =-0.3122 0.4687 0.0000 (  2777 PWs)   bands (ev):

   -14.6265 -12.0354 -10.0477  -2.1230   1.1870  10.2386  10.4174  11.7963
    12.8152  12.8988  13.1378  15.4769

          k = 0.5620 0.0361 0.0000 (  2777 PWs)   bands (ev):

   -14.6264 -12.0354 -10.0478  -2.1229   1.1871  10.2387  10.4174  11.7958
    12.8152  12.8988  13.1379  15.4769

          k =-0.3122-0.4687 0.0000 (  2777 PWs)   bands (ev):

   -14.6264 -12.0353 -10.0479  -2.1230   1.1872  10.2387  10.4173  11.7958
    12.8152  12.8988  13.1378  15.4769

          k = 0.5620-0.0360 0.0000 (  2777 PWs)   bands (ev):

   -14.6264 -12.0356 -10.0476  -2.1229   1.1870  10.2387  10.4174  11.7963
    12.8151  12.8988  13.1377  15.4767

          k =-0.3746 0.5047 0.0000 (  2772 PWs)   bands (ev):

   -13.7780 -12.9137 -10.2210  -1.4746   0.5004  10.4974  11.6662  11.7969
    12.1237  13.7652  14.3545  14.6915

          k = 0.6244 0.0721 0.0000 (  2772 PWs)   bands (ev):

   -13.7781 -12.9135 -10.2213  -1.4747   0.5007  10.4973  11.6658  11.7970
    12.1237  13.7653  14.3545  14.6917

          k =-0.3122 0.5408 0.0000 (  2770 PWs)   bands (ev):

   -13.5996 -12.6052 -10.8753  -1.0717   0.1643  10.2491  11.7620  12.5608
    12.9731  14.0713  14.4211  15.1691

          k = 0.6244 0.0000 0.0000 (  2770 PWs)   bands (ev):

   -13.5994 -12.6053 -10.8753  -1.0716   0.1643  10.2491  11.7622  12.5606
    12.9730  14.0714  14.4213  15.1689

     the Fermi energy is    -0.4537 ev

!    total energy              =     -22.79127070 Ry
     Harris-Foulkes estimate   =     -22.79127070 Ry
     estimated scf accuracy    <          8.7E-10 Ry

     The total energy is the sum of the following terms:

     one-electron contribution =     -90.94985117 Ry
     hartree contribution      =      47.21993620 Ry
     xc contribution           =      -7.02187451 Ry
     ewald contribution        =      27.96052183 Ry
     smearing contrib. (-TS)   =      -0.00000304 Ry

     convergence has been achieved in   4 iterations

     Forces acting on atoms (Ry/au):

     atom   1 type  1   force =     0.00003965   -0.00001736    0.00000000
     atom   2 type  1   force =    -0.00003965    0.00001736    0.00000000

     Total force =     0.000061     Total SCF correction =     0.000009
     SCF correction compared to forces is too large, reduce conv_thr


     entering subroutine stress ...

          total   stress  (Ry/bohr**3)                   (kbar)     P=    0.01
   0.00000015   0.00000003   0.00000000          0.02      0.00      0.00
   0.00000003  -0.00000005   0.00000000          0.00     -0.01      0.00
   0.00000000   0.00000000   0.00000005          0.00      0.00      0.01


     bfgs converged in   7 scf cycles and   3 bfgs steps
     (criteria: energy < 0.10E-03, force < 0.10E-02, cell < 0.20E+00)

     End of BFGS Geometry Optimization

     Final enthalpy =     -22.7912706990 Ry
Begin final coordinates
     new unit-cell volume =    354.31972 a.u.^3 (    52.50477 Ang^3 )

CELL_PARAMETERS (alat=  4.64872800)
   1.000932589  -0.000004012   0.000000000
  -0.500469769   0.866841341   0.000000000
   0.000000000   0.000000000   4.064896400

ATOMIC_POSITIONS (angstrom)
C        0.000550722   0.000255668   0.000000000
C        1.231716314   0.711050546   0.000000000
End final coordinates



     Writing output data file graphene.save

     init_run     :      9.45s CPU     13.55s WALL (       1 calls)
     electrons    :   1243.20s CPU   1288.95s WALL (       7 calls)
     update_pot   :     14.84s CPU     15.62s WALL (       6 calls)
     forces       :     13.48s CPU     18.05s WALL (       7 calls)
     stress       :     36.72s CPU     37.91s WALL (       7 calls)

     Called by init_run:
     wfcinit      :      6.88s CPU     10.90s WALL (       1 calls)
     potinit      :      0.95s CPU      0.98s WALL (       1 calls)

     Called by electrons:
     c_bands      :   1046.76s CPU   1075.10s WALL (      56 calls)
     sum_band     :    184.74s CPU    196.82s WALL (      56 calls)
     v_of_rho     :      5.96s CPU      6.49s WALL (      61 calls)
     newd         :      4.95s CPU      5.47s WALL (      61 calls)
     mix_rho      :      0.72s CPU      0.80s WALL (      56 calls)

     Called by c_bands:
     init_us_2    :     24.24s CPU     25.65s WALL (   16510 calls)
     cegterg      :   1018.86s CPU   1036.28s WALL (    7280 calls)

     Called by *egterg:
     h_psi        :    785.21s CPU    801.76s WALL (   24897 calls)
     s_psi        :     28.56s CPU     29.43s WALL (   24897 calls)
     g_psi        :      8.34s CPU      8.27s WALL (   17487 calls)
     cdiaghg      :     19.00s CPU     18.27s WALL (   23727 calls)

     Called by h_psi:
     add_vuspsi   :     31.65s CPU     31.46s WALL (   24897 calls)

     General routines
     calbec       :     51.07s CPU     52.31s WALL (   33997 calls)
     cft3s        :    741.99s CPU    762.57s WALL (  530947 calls)
     interpolate  :      0.98s CPU      1.11s WALL (     117 calls)
     davcio       :      0.85s CPU     13.08s WALL (   23790 calls)

     Parallel routines

     PWSCF        : 22m 3.89s CPU time,    23m22.74s WALL time


   This run was terminated on:  13:45:16  25Jan2011            

=------------------------------------------------------------------------------=
   JOB DONE.
=------------------------------------------------------------------------------=
