
     Program PWSCF v.4.2.1      starts on  1Mar2011 at 22:39:40 

     This program is part of the open-source Quantum ESPRESSO suite
     for quantum simulation of materials; please acknowledge
         "P. Giannozzi et al., J. Phys.:Condens. Matter 21 395502 (2009);
          URL http://www.quantum-espresso.org", 
     in publications or presentations arising from this work. More details at
     http://www.quantum-espresso.org/wiki/index.php/Citing_Quantum-ESPRESSO

     Parallel version (MPI), running on     1 processors

     Current dimensions of program PWSCF are:
     Max number of different atomic species (ntypx) = 10
     Max number of k-points (npk) =  40000
     Max angular momentum in pseudopotentials (lmaxx) =  3
     Waiting for input...
     file C.pbe-rrkjus.UPF: wavefunction(s)  2S 2P renormalized
     file H.pbe-rrkjus.UPF: wavefunction(s)  1S renormalized

     Subspace diagonalization in iterative solution of the eigenvalue problem:
     Too few procs for parallel algorithm: we need at least 4 procs per pool
     a serial algorithm will be used


     Planes per process (thick) : nr3 = 108 npp =  108 ncplane =   729
     Planes per process (smooth): nr3s=  72 npps=   72 ncplanes=   324

     Proc/  planes cols     G    planes cols    G      columns  G
     Pool       (dense grid)       (smooth grid)      (wavefct grid)
        1   108    439    30493   72    187     7703     61     1501



     bravais-lattice index     =            4
     lattice parameter (a_0)   =       4.6500  a.u.
     unit-cell volume          =     348.2968 (a.u.)^3
     number of atoms/cell      =            4
     number of atomic types    =            2
     number of electrons       =        10.00
     number of Kohn-Sham states=            8
     kinetic-energy cutoff     =      30.0000  Ry
     charge density cutoff     =     300.0000  Ry
     convergence threshold     =      1.0E-08
     mixing beta               =       0.3000
     number of iterations used =            8  plain     mixing
     Exchange-correlation      =  SLA  PW   PBE  PBE (1434)
     EXX-fraction              =        0.00
     nstep                     =           50


     celldm(1)=   4.650000  celldm(2)=   0.000000  celldm(3)=   4.000000
     celldm(4)=   0.000000  celldm(5)=   0.000000  celldm(6)=   0.000000

     crystal axes: (cart. coord. in units of a_0)
               a(1) = (  1.000000  0.000000  0.000000 )  
               a(2) = ( -0.500000  0.866025  0.000000 )  
               a(3) = (  0.000000  0.000000  4.000000 )  

     reciprocal axes: (cart. coord. in units 2 pi/a_0)
               b(1) = (  1.000000  0.577350 -0.000000 )  
               b(2) = (  0.000000  1.154701  0.000000 )  
               b(3) = (  0.000000 -0.000000  0.250000 )  


     PseudoPot. # 1 for C  read from file C.pbe-rrkjus.UPF
     Pseudo is Ultrasoft, Zval =  4.0
     Generated by new atomic code, or converted to UPF format
     Using radial grid of  627 points,  4 beta functions with: 
                l(1) =   0
                l(2) =   0
                l(3) =   1
                l(4) =   1
     Q(r) pseudized with 0 coefficients 


     PseudoPot. # 2 for H  read from file H.pbe-rrkjus.UPF
     Pseudo is Ultrasoft, Zval =  1.0
     Generated by new atomic code, or converted to UPF format
     Using radial grid of 1061 points,  2 beta functions with: 
                l(1) =   0
                l(2) =   0
     Q(r) pseudized with 0 coefficients 


     atomic species   valence    mass     pseudopotential
        C              4.00    12.00000     C ( 1.00)
        H              1.00     1.00000     H ( 1.00)

     12 Sym.Ops. (with inversion)


   Cartesian axes

     site n.     atom                  positions (a_0 units)
         1           C   tau(  1) = (   0.0000000   0.0000000   0.0000000  )
         2           C   tau(  2) = (  -0.0000000   0.5773503   0.0000000  )
         3           H   tau(  3) = (   0.0000000   0.0000000   0.8000000  )
         4           H   tau(  4) = (  -0.0000000   0.5773503  -0.8000000  )

     number of k points=    14  gaussian broad. (Ry)=  0.0200     ngauss =   0
                       cart. coord. in units 2pi/a_0
        k(    1) = (   0.0000000   0.0000000   0.0000000), wk =   0.0200000
        k(    2) = (   0.0000000   0.1154701   0.0000000), wk =   0.1200000
        k(    3) = (   0.0000000   0.2309401   0.0000000), wk =   0.1200000
        k(    4) = (   0.0000000   0.3464102   0.0000000), wk =   0.1200000
        k(    5) = (   0.0000000   0.4618802   0.0000000), wk =   0.1200000
        k(    6) = (   0.0000000  -0.5773503   0.0000000), wk =   0.0600000
        k(    7) = (   0.1000000   0.1732051   0.0000000), wk =   0.1200000
        k(    8) = (   0.1000000   0.2886751   0.0000000), wk =   0.2400000
        k(    9) = (   0.1000000   0.4041452   0.0000000), wk =   0.2400000
        k(   10) = (   0.1000000   0.5196152   0.0000000), wk =   0.2400000
        k(   11) = (   0.2000000   0.3464102   0.0000000), wk =   0.1200000
        k(   12) = (   0.2000000   0.4618802   0.0000000), wk =   0.2400000
        k(   13) = (   0.2000000   0.5773503   0.0000000), wk =   0.1200000
        k(   14) = (   0.3000000   0.5196152   0.0000000), wk =   0.1200000

     G cutoff =  164.3113  (  30493 G-vectors)     FFT grid: ( 27, 27,108)
     G cutoff =   65.7245  (   7703 G-vectors)  smooth grid: ( 18, 18, 72)

     Largest allocated arrays     est. size (Mb)     dimensions
        Kohn-Sham Wavefunctions         0.12 Mb     (    979,   8)
        NL pseudopotentials             0.30 Mb     (    979,  20)
        Each V/rho on FFT grid          1.20 Mb     (  78732)
        Each G-vector array             0.23 Mb     (  30493)
        G-vector shells                 0.23 Mb     (  30493)
     Largest temporary arrays     est. size (Mb)     dimensions
        Auxiliary wavefunctions         0.48 Mb     (    979,  32)
        Each subspace H/S matrix        0.02 Mb     (     32,  32)
        Each <psi_i|beta_j> matrix      0.00 Mb     (     20,   8)
        Arrays for rho mixing           9.61 Mb     (  78732,   8)

     Initial potential from superposition of free atoms

     starting charge    9.80749, renormalised to   10.00000
     Starting wfc are   10 atomic wfcs

     total cpu time spent up to now is     12.51 secs

     per-process dynamical memory:    25.6 Mb

     Self-consistent Calculation

     iteration #  1     ecut=    30.00 Ry     beta=0.30
     Davidson diagonalization with overlap
     ethr =  1.00E-02,  avg # of iterations =  3.4

     total cpu time spent up to now is     16.11 secs

     total energy              =     -24.75729470 Ry
     Harris-Foulkes estimate   =     -24.90956372 Ry
     estimated scf accuracy    <       0.47487323 Ry

     iteration #  2     ecut=    30.00 Ry     beta=0.30
     Davidson diagonalization with overlap
     ethr =  4.75E-03,  avg # of iterations =  1.0

     total cpu time spent up to now is     19.07 secs

     total energy              =     -24.79703326 Ry
     Harris-Foulkes estimate   =     -24.82316920 Ry
     estimated scf accuracy    <       0.09239293 Ry

     iteration #  3     ecut=    30.00 Ry     beta=0.30
     Davidson diagonalization with overlap
     ethr =  9.24E-04,  avg # of iterations =  1.6

     total cpu time spent up to now is     22.06 secs

     total energy              =     -24.78837580 Ry
     Harris-Foulkes estimate   =     -24.80243187 Ry
     estimated scf accuracy    <       0.03864830 Ry

     iteration #  4     ecut=    30.00 Ry     beta=0.30
     Davidson diagonalization with overlap
     ethr =  3.86E-04,  avg # of iterations =  2.4

     total cpu time spent up to now is     25.16 secs

     total energy              =     -24.79111974 Ry
     Harris-Foulkes estimate   =     -24.79106266 Ry
     estimated scf accuracy    <       0.00042700 Ry

     iteration #  5     ecut=    30.00 Ry     beta=0.30
     Davidson diagonalization with overlap
     ethr =  4.27E-06,  avg # of iterations =  4.0

     total cpu time spent up to now is     28.28 secs

     total energy              =     -24.79121432 Ry
     Harris-Foulkes estimate   =     -24.79123140 Ry
     estimated scf accuracy    <       0.00017719 Ry

     iteration #  6     ecut=    30.00 Ry     beta=0.30
     Davidson diagonalization with overlap
     ethr =  1.77E-06,  avg # of iterations =  1.5

     total cpu time spent up to now is     30.26 secs

     total energy              =     -24.79123496 Ry
     Harris-Foulkes estimate   =     -24.79123315 Ry
     estimated scf accuracy    <       0.00000344 Ry

     iteration #  7     ecut=    30.00 Ry     beta=0.30
     Davidson diagonalization with overlap
     ethr =  3.44E-08,  avg # of iterations =  2.1

     total cpu time spent up to now is     32.32 secs

     total energy              =     -24.79123558 Ry
     Harris-Foulkes estimate   =     -24.79123565 Ry
     estimated scf accuracy    <       0.00000033 Ry

     iteration #  8     ecut=    30.00 Ry     beta=0.30
     Davidson diagonalization with overlap
     ethr =  3.35E-09,  avg # of iterations =  1.9

     total cpu time spent up to now is     34.39 secs

     total energy              =     -24.79123565 Ry
     Harris-Foulkes estimate   =     -24.79123562 Ry
     estimated scf accuracy    <       0.00000006 Ry

     iteration #  9     ecut=    30.00 Ry     beta=0.30
     Davidson diagonalization with overlap
     ethr =  5.58E-10,  avg # of iterations =  1.6

     total cpu time spent up to now is     36.23 secs

     End of self-consistent calculation

          k = 0.0000 0.0000 0.0000 (   939 PWs)   bands (ev):

   -20.4575  -9.4614  -4.1998  -3.9767  -3.9767  -2.1141   4.5511   7.4395

          k = 0.0000 0.1155 0.0000 (   941 PWs)   bands (ev):

   -20.2206  -9.1769  -4.8900  -4.4488  -3.9300  -1.8500   4.8682   7.5190

          k = 0.0000 0.2309 0.0000 (   953 PWs)   bands (ev):

   -19.5138  -8.3401  -7.0558  -5.4628  -3.1447  -1.0891   5.7910   7.3806

          k = 0.0000 0.3464 0.0000 (   967 PWs)   bands (ev):

   -18.3504  -9.6800  -6.9722  -6.4507  -1.9534   0.0587   4.7821   6.9571

          k = 0.0000 0.4619 0.0000 (   965 PWs)   bands (ev):

   -16.7651 -12.2522  -7.1192  -5.2770  -0.8506   1.2195   2.5317   6.6918

          k = 0.0000-0.5774 0.0000 (   972 PWs)   bands (ev):

   -15.2037 -14.1600  -7.3523  -4.1397  -0.9711   1.6972   2.0868   6.6036

          k = 0.1000 0.1732 0.0000 (   956 PWs)   bands (ev):

   -19.7488  -8.6148  -6.2315  -5.3947  -3.4006  -1.3371   5.4948   7.9892

          k = 0.1000 0.2887 0.0000 (   965 PWs)   bands (ev):

   -18.8137  -8.4071  -7.4925  -6.6350  -2.4025  -0.3728   5.8037   6.8899

          k = 0.1000 0.4041 0.0000 (   979 PWs)   bands (ev):

   -17.4372 -10.9025  -7.5528  -5.9458  -1.1711   0.8406   3.4103   7.7760

          k = 0.1000 0.5196 0.0000 (   977 PWs)   bands (ev):

   -15.6992 -13.2807  -8.0287  -4.2945  -0.7695   1.6864   2.1749   7.6061

          k = 0.2000 0.3464 0.0000 (   976 PWs)   bands (ev):

   -17.6648  -9.8676  -8.3922  -6.1794  -1.3209   0.6921   3.9207   8.3740

          k = 0.2000 0.4619 0.0000 (   969 PWs)   bands (ev):

   -16.1095 -11.8576  -9.4638  -4.5076  -0.5432   1.7470   2.3612   9.1614

          k = 0.2000 0.5774 0.0000 (   966 PWs)   bands (ev):

   -14.5956 -13.6048  -9.7683  -3.3091  -1.0052   2.1377   2.2679   9.2091

          k = 0.3000 0.5196 0.0000 (   978 PWs)   bands (ev):

   -14.4777 -12.7873 -11.0955  -2.8681  -1.1277   2.3003   2.3536   8.4944

     the Fermi energy is    -0.7526 ev

!    total energy              =     -24.79123591 Ry
     Harris-Foulkes estimate   =     -24.79123565 Ry
     estimated scf accuracy    <          3.2E-09 Ry

     The total energy is the sum of the following terms:

     one-electron contribution =     -92.92506994 Ry
     hartree contribution      =      48.59489774 Ry
     xc contribution           =      -8.13596297 Ry
     ewald contribution        =      27.67863910 Ry
     smearing contrib. (-TS)   =      -0.00373983 Ry

     convergence has been achieved in   9 iterations

     Forces acting on atoms (Ry/au):

     atom   1 type  1   force =     0.00000000    0.00000000    0.10111969
     atom   2 type  1   force =     0.00000000    0.00000000   -0.10111969
     atom   3 type  2   force =     0.00000000   -0.00000000   -0.02586094
     atom   4 type  2   force =     0.00000000    0.00000000    0.02586094

     Total force =     0.147607     Total SCF correction =     0.000034


     entering subroutine stress ...

          total   stress  (Ry/bohr**3)                   (kbar)     P=  -21.83
   0.00005910  -0.00000000  -0.00000000          8.69     -0.00     -0.00
  -0.00000000   0.00005910  -0.00000000         -0.00      8.69     -0.00
  -0.00000000  -0.00000000  -0.00056338         -0.00     -0.00    -82.88


     BFGS Geometry Optimization

     number of scf cycles    =   1
     number of bfgs steps    =   0

     enthalpy new            =     -24.7912359136 Ry

     new trust radius        =       0.5000000000 bohr
     new conv_thr            =       0.0000000100 Ry

     new unit-cell volume =    331.20054 a.u.^3 (    49.07886 Ang^3 )

CELL_PARAMETERS (alat=  4.65000000)
   1.006416889  -0.000000000  -0.000000000
  -0.503208444   0.871582592  -0.000000000
  -0.000000000  -0.000000000   3.755309299

ATOMIC_POSITIONS (crystal)
C       -0.000000000  -0.000000000   0.016948523
C        0.333333333   0.666666667  -0.016948523
H        0.000000000  -0.000000000   0.195665486
H        0.333333333   0.666666667  -0.195665486



     Writing output data file graphane.save
     NEW-OLD atomic charge density approx. for the potential
     NEW k-points:
        k(    1) = (   0.0000000   0.0000000   0.0000000), wk =   0.0200000
        k(    2) = (   0.0000000   0.1147338   0.0000000), wk =   0.1200000
        k(    3) = (   0.0000000   0.2294676   0.0000000), wk =   0.1200000
        k(    4) = (   0.0000000   0.3442015   0.0000000), wk =   0.1200000
        k(    5) = (   0.0000000   0.4589353   0.0000000), wk =   0.1200000
        k(    6) = (  -0.0000000  -0.5736691  -0.0000000), wk =   0.0600000
        k(    7) = (   0.0993624   0.1721007   0.0000000), wk =   0.1200000
        k(    8) = (   0.0993624   0.2868345   0.0000000), wk =   0.2400000
        k(    9) = (   0.0993624   0.4015684   0.0000000), wk =   0.2400000
        k(   10) = (   0.0993624   0.5163022   0.0000000), wk =   0.2400000
        k(   11) = (   0.1987248   0.3442015   0.0000000), wk =   0.1200000
        k(   12) = (   0.1987248   0.4589353   0.0000000), wk =   0.2400000
        k(   13) = (   0.1987248   0.5736691   0.0000000), wk =   0.1200000
        k(   14) = (   0.2980872   0.5163022   0.0000000), wk =   0.1200000

     negative rho (up, down):  0.466E-03 0.000E+00
     extrapolated charge    9.49375, renormalised to   10.00000

     total cpu time spent up to now is     59.70 secs

     per-process dynamical memory:    30.0 Mb

     Self-consistent Calculation

     iteration #  1     ecut=    30.00 Ry     beta=0.30
     Davidson diagonalization with overlap
     ethr =  1.00E-06,  avg # of iterations =  8.6

     negative rho (up, down):  0.336E-03 0.000E+00

     total cpu time spent up to now is     64.12 secs

     total energy              =     -24.29644836 Ry
     Harris-Foulkes estimate   =     -29.06103325 Ry
     estimated scf accuracy    <       1.05024721 Ry

     iteration #  2     ecut=    30.00 Ry     beta=0.30
     Davidson diagonalization with overlap
     ethr =  1.00E-02,  avg # of iterations =  3.6

     negative rho (up, down):  0.439E-04 0.000E+00

     total cpu time spent up to now is     66.61 secs

     total energy              =     -24.83775432 Ry
     Harris-Foulkes estimate   =     -25.12320620 Ry
     estimated scf accuracy    <       1.20584592 Ry

     iteration #  3     ecut=    30.00 Ry     beta=0.30
     Davidson diagonalization with overlap
     ethr =  1.00E-02,  avg # of iterations =  1.1

     negative rho (up, down):  0.197E-04 0.000E+00

     total cpu time spent up to now is     68.71 secs

     total energy              =     -24.92081214 Ry
     Harris-Foulkes estimate   =     -24.93057707 Ry
     estimated scf accuracy    <       0.10411131 Ry

     iteration #  4     ecut=    30.00 Ry     beta=0.30
     Davidson diagonalization with overlap
     ethr =  1.04E-03,  avg # of iterations =  1.7

     total cpu time spent up to now is     70.69 secs

     total energy              =     -24.89889755 Ry
     Harris-Foulkes estimate   =     -24.92240711 Ry
     estimated scf accuracy    <       0.05946614 Ry

     iteration #  5     ecut=    30.00 Ry     beta=0.30
     Davidson diagonalization with overlap
     ethr =  5.95E-04,  avg # of iterations =  2.9

     total cpu time spent up to now is     72.84 secs

     total energy              =     -24.91155239 Ry
     Harris-Foulkes estimate   =     -24.91110497 Ry
     estimated scf accuracy    <       0.00200172 Ry

     iteration #  6     ecut=    30.00 Ry     beta=0.30
     Davidson diagonalization with overlap
     ethr =  2.00E-05,  avg # of iterations =  4.0

     total cpu time spent up to now is     75.07 secs

     total energy              =     -24.91034128 Ry
     Harris-Foulkes estimate   =     -24.91175171 Ry
     estimated scf accuracy    <       0.00417165 Ry

     iteration #  7     ecut=    30.00 Ry     beta=0.30
     Davidson diagonalization with overlap
     ethr =  2.00E-05,  avg # of iterations =  2.1

     total cpu time spent up to now is     77.09 secs

     total energy              =     -24.91085179 Ry
     Harris-Foulkes estimate   =     -24.91087108 Ry
     estimated scf accuracy    <       0.00005029 Ry

     iteration #  8     ecut=    30.00 Ry     beta=0.30
     Davidson diagonalization with overlap
     ethr =  5.03E-07,  avg # of iterations =  3.5

     total cpu time spent up to now is     79.30 secs

     total energy              =     -24.91086897 Ry
     Harris-Foulkes estimate   =     -24.91087410 Ry
     estimated scf accuracy    <       0.00002588 Ry

     iteration #  9     ecut=    30.00 Ry     beta=0.30
     Davidson diagonalization with overlap
     ethr =  2.59E-07,  avg # of iterations =  1.0

     total cpu time spent up to now is     81.15 secs

     total energy              =     -24.91087077 Ry
     Harris-Foulkes estimate   =     -24.91087093 Ry
     estimated scf accuracy    <       0.00000242 Ry

     iteration # 10     ecut=    30.00 Ry     beta=0.30
     Davidson diagonalization with overlap
     ethr =  2.42E-08,  avg # of iterations =  1.7

     total cpu time spent up to now is     83.13 secs

     total energy              =     -24.91087149 Ry
     Harris-Foulkes estimate   =     -24.91087114 Ry
     estimated scf accuracy    <       0.00000001 Ry

     iteration # 11     ecut=    30.00 Ry     beta=0.30
     Davidson diagonalization with overlap
     ethr =  1.27E-10,  avg # of iterations =  2.6

     total cpu time spent up to now is     85.31 secs

     End of self-consistent calculation

          k = 0.0000 0.0000 0.0000 (   939 PWs)   bands (ev):

   -18.8647  -8.6985  -3.6187  -1.8977  -1.8977  -0.1387   4.2223   8.7081

          k = 0.0000 0.1147 0.0000 (   941 PWs)   bands (ev):

   -18.6257  -8.4314  -3.3813  -2.8934  -2.3684   0.1564   4.4886   8.3007

          k = 0.0000 0.2295 0.0000 (   953 PWs)   bands (ev):

   -17.9125  -7.6451  -5.1835  -3.3731  -2.7003   0.9520   5.1523   7.7468

          k = 0.0000 0.3442 0.0000 (   967 PWs)   bands (ev):

   -16.7388  -7.8737  -6.3983  -4.3469  -1.7828   2.1556   5.1690   7.8604

          k = 0.0000 0.4589 0.0000 (   965 PWs)   bands (ev):

   -15.1445 -10.4958  -5.0044  -4.8747  -1.2498   3.4428   4.4288   7.8859

          k =-0.0000-0.5737-0.0000 (   972 PWs)   bands (ev):

   -13.6402 -12.3592  -5.2334  -3.8921  -1.4916   4.0089   4.4949   7.7086

          k = 0.0994 0.1721 0.0000 (   956 PWs)   bands (ev):

   -18.1496  -7.9044  -4.3237  -3.3379  -2.9028   0.6978   4.9680   8.1051

          k = 0.0994 0.2868 0.0000 (   965 PWs)   bands (ev):

   -17.2059  -6.8839  -6.5626  -4.5775  -2.0994   1.7062   5.4177   7.7979

          k = 0.0994 0.4016 0.0000 (   979 PWs)   bands (ev):

   -15.8180  -9.1289  -5.5122  -5.4520  -1.3116   3.0128   4.7661   8.8733

          k = 0.0994 0.5163 0.0000 (   977 PWs)   bands (ev):

   -14.0844 -11.5269  -5.9702  -4.0220  -1.3303   4.0150   4.5420   8.7651

          k = 0.1987 0.3442 0.0000 (   976 PWs)   bands (ev):

   -16.0465  -8.1047  -6.3603  -5.6801  -1.3621   2.8517   5.0343   8.7477

          k = 0.1987 0.4589 0.0000 (   969 PWs)   bands (ev):

   -14.4809 -10.1276  -7.4628  -4.2057  -1.1115   4.0571   4.6546   9.3067

          k = 0.1987 0.5737 0.0000 (   966 PWs)   bands (ev):

   -13.0094 -11.8351  -7.7815  -3.2022  -1.5040   4.5542   4.8405   8.8663

          k = 0.2981 0.5163 0.0000 (   978 PWs)   bands (ev):

   -12.8476 -11.1342  -9.0674  -2.8511  -1.5811   4.8311   4.9190   8.5811

     the Fermi energy is    -0.5403 ev

!    total energy              =     -24.91087181 Ry
     Harris-Foulkes estimate   =     -24.91087150 Ry
     estimated scf accuracy    <          1.3E-09 Ry

     The total energy is the sum of the following terms:

     one-electron contribution =     -83.72103269 Ry
     hartree contribution      =      44.45645792 Ry
     xc contribution           =      -8.17812377 Ry
     ewald contribution        =      22.53185857 Ry
     smearing contrib. (-TS)   =      -0.00003184 Ry

     convergence has been achieved in  11 iterations

     Forces acting on atoms (Ry/au):

     atom   1 type  1   force =     0.00000000   -0.00000000    0.12105653
     atom   2 type  1   force =    -0.00000000   -0.00000000   -0.12105653
     atom   3 type  2   force =     0.00000000   -0.00000000   -0.13388619
     atom   4 type  2   force =    -0.00000000    0.00000000    0.13388619

     Total force =     0.255265     Total SCF correction =     0.000037


     entering subroutine stress ...

          total   stress  (Ry/bohr**3)                   (kbar)     P=  -73.60
   0.00053770  -0.00000000  -0.00000000         79.10     -0.00     -0.00
  -0.00000000   0.00053770  -0.00000000         -0.00     79.10     -0.00
   0.00000000   0.00000000  -0.00257645          0.00      0.00   -379.01


     number of scf cycles    =   2
     number of bfgs steps    =   1

     enthalpy old            =     -24.7912359136 Ry
     enthalpy new            =     -24.9108718087 Ry

     CASE: enthalpy_new < enthalpy_old

     uphill step: resetting bfgs history

     new trust radius        =       0.8000000000 bohr
     new conv_thr            =       0.0000000100 Ry

     new unit-cell volume =    292.44452 a.u.^3 (    43.33581 Ang^3 )

CELL_PARAMETERS (alat=  4.65000000)
   1.044159805  -0.000000000   0.000000000
  -0.522079902   0.904268917  -0.000000000
  -0.000000000  -0.000000000   3.080491784

ATOMIC_POSITIONS (crystal)
C        0.000000000  -0.000000000   0.031547348
C        0.333333333   0.666666667  -0.031547348
H        0.000000000  -0.000000000   0.179519466
H        0.333333333   0.666666667  -0.179519466



     Writing output data file graphane.save
     NEW-OLD atomic charge density approx. for the potential
     NEW k-points:
        k(    1) = (   0.0000000   0.0000000   0.0000000), wk =   0.0200000
        k(    2) = (   0.0000000   0.1105866   0.0000000), wk =   0.1200000
        k(    3) = (   0.0000000   0.2211731   0.0000000), wk =   0.1200000
        k(    4) = (   0.0000000   0.3317597   0.0000000), wk =   0.1200000
        k(    5) = (   0.0000000   0.4423463   0.0000000), wk =   0.1200000
        k(    6) = (  -0.0000000  -0.5529329  -0.0000000), wk =   0.0600000
        k(    7) = (   0.0957708   0.1658799   0.0000000), wk =   0.1200000
        k(    8) = (   0.0957708   0.2764664   0.0000000), wk =   0.2400000
        k(    9) = (   0.0957708   0.3870530   0.0000000), wk =   0.2400000
        k(   10) = (   0.0957708   0.4976396   0.0000000), wk =   0.2400000
        k(   11) = (   0.1915416   0.3317597   0.0000000), wk =   0.1200000
        k(   12) = (   0.1915416   0.4423463   0.0000000), wk =   0.2400000
        k(   13) = (   0.1915416   0.5529329   0.0000000), wk =   0.1200000
        k(   14) = (   0.2873123   0.4976396   0.0000000), wk =   0.1200000

     negative rho (up, down):  0.293E-02 0.000E+00
     extrapolated charge    8.70027, renormalised to   10.00000

     total cpu time spent up to now is    109.07 secs

     per-process dynamical memory:    30.0 Mb

     Self-consistent Calculation

     iteration #  1     ecut=    30.00 Ry     beta=0.30
     Davidson diagonalization with overlap
     ethr =  1.00E-06,  avg # of iterations = 11.6

     negative rho (up, down):  0.230E-02 0.000E+00

     total cpu time spent up to now is    114.21 secs

     total energy              =     -24.54625012 Ry
     Harris-Foulkes estimate   =     -32.20052721 Ry
     estimated scf accuracy    <       1.08896852 Ry

     iteration #  2     ecut=    30.00 Ry     beta=0.30
     Davidson diagonalization with overlap
     ethr =  1.00E-02,  avg # of iterations =  3.5

     negative rho (up, down):  0.821E-03 0.000E+00

     total cpu time spent up to now is    116.79 secs

     total energy              =     -25.14825068 Ry
     Harris-Foulkes estimate   =     -25.16650381 Ry
     estimated scf accuracy    <       0.06900328 Ry

     iteration #  3     ecut=    30.00 Ry     beta=0.30
     Davidson diagonalization with overlap
     ethr =  6.90E-04,  avg # of iterations =  1.6

     total cpu time spent up to now is    118.69 secs

     total energy              =     -25.14245087 Ry
     Harris-Foulkes estimate   =     -25.15210636 Ry
     estimated scf accuracy    <       0.02212935 Ry

     iteration #  4     ecut=    30.00 Ry     beta=0.30
     Davidson diagonalization with overlap
     ethr =  2.21E-04,  avg # of iterations =  2.9

     total cpu time spent up to now is    120.69 secs

     total energy              =     -25.14719948 Ry
     Harris-Foulkes estimate   =     -25.15742594 Ry
     estimated scf accuracy    <       0.02469444 Ry

     iteration #  5     ecut=    30.00 Ry     beta=0.30
     Davidson diagonalization with overlap
     ethr =  2.21E-04,  avg # of iterations =  1.9

     total cpu time spent up to now is    122.65 secs

     total energy              =     -25.14808517 Ry
     Harris-Foulkes estimate   =     -25.14946191 Ry
     estimated scf accuracy    <       0.00247896 Ry

     iteration #  6     ecut=    30.00 Ry     beta=0.30
     Davidson diagonalization with overlap
     ethr =  2.48E-05,  avg # of iterations =  3.1

     total cpu time spent up to now is    124.98 secs

     total energy              =     -25.14864866 Ry
     Harris-Foulkes estimate   =     -25.14862919 Ry
     estimated scf accuracy    <       0.00001429 Ry

     iteration #  7     ecut=    30.00 Ry     beta=0.30
     Davidson diagonalization with overlap
     ethr =  1.43E-07,  avg # of iterations =  2.9

     total cpu time spent up to now is    127.42 secs

     total energy              =     -25.14860280 Ry
     Harris-Foulkes estimate   =     -25.14868317 Ry
     estimated scf accuracy    <       0.00014943 Ry

     iteration #  8     ecut=    30.00 Ry     beta=0.30
     Davidson diagonalization with overlap
     ethr =  1.43E-07,  avg # of iterations =  2.9

     total cpu time spent up to now is    129.73 secs

     total energy              =     -25.14863292 Ry
     Harris-Foulkes estimate   =     -25.14863186 Ry
     estimated scf accuracy    <       0.00000012 Ry

     iteration #  9     ecut=    30.00 Ry     beta=0.30
     Davidson diagonalization with overlap
     ethr =  1.15E-09,  avg # of iterations =  2.2

     total cpu time spent up to now is    131.94 secs

     total energy              =     -25.14863333 Ry
     Harris-Foulkes estimate   =     -25.14863307 Ry
     estimated scf accuracy    <       0.00000039 Ry

     iteration # 10     ecut=    30.00 Ry     beta=0.30
     Davidson diagonalization with overlap
     ethr =  1.15E-09,  avg # of iterations =  2.0

     total cpu time spent up to now is    134.73 secs

     total energy              =     -25.14863366 Ry
     Harris-Foulkes estimate   =     -25.14863345 Ry
     estimated scf accuracy    <       0.00000003 Ry

     iteration # 11     ecut=    30.00 Ry     beta=0.30
     Davidson diagonalization with overlap
     ethr =  2.85E-10,  avg # of iterations =  2.0

     total cpu time spent up to now is    137.57 secs

     End of self-consistent calculation

          k = 0.0000 0.0000 0.0000 (   939 PWs)   bands (ev):

   -16.8104  -9.2151  -2.6504   0.3052   0.3052   4.5615   5.0301  10.2160

          k = 0.0000 0.1106 0.0000 (   941 PWs)   bands (ev):

   -16.5822  -9.0132  -2.5528  -0.7503  -0.1246   4.7259   5.3163   8.8318

          k = 0.0000 0.2212 0.0000 (   953 PWs)   bands (ev):

   -15.9028  -8.4475  -3.1007  -2.2841  -1.0398   5.1608   6.1271   8.4468

          k = 0.0000 0.3318 0.0000 (   967 PWs)   bands (ev):

   -14.7913  -7.7900  -5.4449  -2.2266  -1.9256   5.7417   7.3972   8.3588

          k = 0.0000 0.4423 0.0000 (   965 PWs)   bands (ev):

   -13.3133  -8.8007  -5.8429  -2.5622  -2.5236   6.6063   8.2302   9.2707

          k =-0.0000-0.5529-0.0000 (   972 PWs)   bands (ev):

   -12.0921 -10.2457  -5.3469  -2.9365  -2.7322   7.6975   8.0537   8.9559

          k = 0.0958 0.1659 0.0000 (   956 PWs)   bands (ev):

   -16.1284  -8.6279  -2.4156  -2.2222  -0.9891   5.0393   5.8653   9.1434

          k = 0.0958 0.2765 0.0000 (   965 PWs)   bands (ev):

   -15.2319  -7.9684  -4.3605  -2.4899  -1.9141   5.5900   6.9180   9.1113

          k = 0.0958 0.3871 0.0000 (   979 PWs)   bands (ev):

   -13.9272  -7.9181  -5.8670  -3.1366  -2.2515   6.3508   8.3860   9.1704

          k = 0.0958 0.4976 0.0000 (   977 PWs)   bands (ev):

   -12.3778  -9.6452  -5.4119  -3.4600  -2.8079   7.4614   9.1736   9.5091

          k = 0.1915 0.3318 0.0000 (   976 PWs)   bands (ev):

   -14.1377  -7.6123  -5.3642  -4.0040  -2.1611   6.3565   8.1408  10.1859

          k = 0.1915 0.4423 0.0000 (   969 PWs)   bands (ev):

   -12.6879  -8.6382  -5.4434  -4.7745  -2.6270   7.4980   9.0545  10.0544

          k = 0.1915 0.5529 0.0000 (   966 PWs)   bands (ev):

   -11.4659  -9.9411  -5.6027  -4.3530  -3.1202   8.2084   9.6660   9.8243

          k = 0.2873 0.4976 0.0000 (   978 PWs)   bands (ev):

   -11.2186  -9.6494  -6.3961  -4.2538  -3.2646   8.3551   9.1767  10.5905

     the Fermi energy is     2.2318 ev

!    total energy              =     -25.14863385 Ry
     Harris-Foulkes estimate   =     -25.14863366 Ry
     estimated scf accuracy    <          3.7E-10 Ry

     The total energy is the sum of the following terms:

     one-electron contribution =     -59.55806798 Ry
     hartree contribution      =      32.86139505 Ry
     xc contribution           =      -8.44008437 Ry
     ewald contribution        =       9.98812345 Ry
     smearing contrib. (-TS)   =      -0.00000000 Ry

     convergence has been achieved in  11 iterations

     Forces acting on atoms (Ry/au):

     atom   1 type  1   force =    -0.00000000   -0.00000000   -0.01668827
     atom   2 type  1   force =    -0.00000000   -0.00000000    0.01668827
     atom   3 type  2   force =     0.00000000   -0.00000000   -0.01523386
     atom   4 type  2   force =     0.00000000    0.00000000    0.01523386

     Total force =     0.031955     Total SCF correction =     0.000031


     entering subroutine stress ...

          total   stress  (Ry/bohr**3)                   (kbar)     P=  -50.47
  -0.00033358  -0.00000000  -0.00000000        -49.07     -0.00     -0.00
  -0.00000000  -0.00033358  -0.00000000         -0.00    -49.07     -0.00
   0.00000000   0.00000000  -0.00036202          0.00      0.00    -53.26


     number of scf cycles    =   3
     number of bfgs steps    =   2

     enthalpy old            =     -24.9108718087 Ry
     enthalpy new            =     -25.1486338513 Ry

     CASE: enthalpy_new < enthalpy_old

     new trust radius        =       0.0947136739 bohr
     new conv_thr            =       0.0000000100 Ry

     new unit-cell volume =    280.27085 a.u.^3 (    41.53185 Ang^3 )

CELL_PARAMETERS (alat=  4.65000000)
   1.035794331  -0.000000000   0.000000000
  -0.517897165   0.897024204   0.000000000
  -0.000000000  -0.000000000   3.000139042

ATOMIC_POSITIONS (crystal)
C        0.000000000  -0.000000000   0.031349981
C        0.333333333   0.666666667  -0.031349981
H        0.000000000  -0.000000000   0.178065943
H        0.333333333   0.666666667  -0.178065943



     Writing output data file graphane.save
     NEW-OLD atomic charge density approx. for the potential
     NEW k-points:
        k(    1) = (   0.0000000   0.0000000   0.0000000), wk =   0.0200000
        k(    2) = (   0.0000000   0.1114797   0.0000000), wk =   0.1200000
        k(    3) = (   0.0000000   0.2229594   0.0000000), wk =   0.1200000
        k(    4) = (   0.0000000   0.3344391   0.0000000), wk =   0.1200000
        k(    5) = (   0.0000000   0.4459188   0.0000000), wk =   0.1200000
        k(    6) = (  -0.0000000  -0.5573986  -0.0000000), wk =   0.0600000
        k(    7) = (   0.0965443   0.1672196   0.0000000), wk =   0.1200000
        k(    8) = (   0.0965443   0.2786993   0.0000000), wk =   0.2400000
        k(    9) = (   0.0965443   0.3901790   0.0000000), wk =   0.2400000
        k(   10) = (   0.0965443   0.5016587   0.0000000), wk =   0.2400000
        k(   11) = (   0.1930885   0.3344391   0.0000000), wk =   0.1200000
        k(   12) = (   0.1930885   0.4459188   0.0000000), wk =   0.2400000
        k(   13) = (   0.1930885   0.5573986   0.0000000), wk =   0.1200000
        k(   14) = (   0.2896328   0.5016587   0.0000000), wk =   0.1200000

     negative rho (up, down):  0.363E-04 0.000E+00
     extrapolated charge    9.57401, renormalised to   10.00000

     total cpu time spent up to now is    167.14 secs

     per-process dynamical memory:    30.0 Mb

     Self-consistent Calculation

     iteration #  1     ecut=    30.00 Ry     beta=0.30
     Davidson diagonalization with overlap
     ethr =  1.00E-06,  avg # of iterations =  9.2

     negative rho (up, down):  0.171E-04 0.000E+00

     total cpu time spent up to now is    170.60 secs

     total energy              =     -25.06525687 Ry
     Harris-Foulkes estimate   =     -27.43914554 Ry
     estimated scf accuracy    <       0.09141698 Ry

     iteration #  2     ecut=    30.00 Ry     beta=0.30
     Davidson diagonalization with overlap
     ethr =  9.14E-04,  avg # of iterations =  3.2

     total cpu time spent up to now is    173.18 secs

     total energy              =     -25.15119470 Ry
     Harris-Foulkes estimate   =     -25.15922737 Ry
     estimated scf accuracy    <       0.02827693 Ry

     iteration #  3     ecut=    30.00 Ry     beta=0.30
     Davidson diagonalization with overlap
     ethr =  2.83E-04,  avg # of iterations =  1.0

     total cpu time spent up to now is    175.13 secs

     total energy              =     -25.14850790 Ry
     Harris-Foulkes estimate   =     -25.15240318 Ry
     estimated scf accuracy    <       0.00896368 Ry

     iteration #  4     ecut=    30.00 Ry     beta=0.30
     Davidson diagonalization with overlap
     ethr =  8.96E-05,  avg # of iterations =  2.5

     total cpu time spent up to now is    177.28 secs

     total energy              =     -25.14911653 Ry
     Harris-Foulkes estimate   =     -25.14959539 Ry
     estimated scf accuracy    <       0.00058884 Ry

     iteration #  5     ecut=    30.00 Ry     beta=0.30
     Davidson diagonalization with overlap
     ethr =  5.89E-06,  avg # of iterations =  3.1

     total cpu time spent up to now is    179.94 secs

     total energy              =     -25.14940106 Ry
     Harris-Foulkes estimate   =     -25.14974787 Ry
     estimated scf accuracy    <       0.00099255 Ry

     iteration #  6     ecut=    30.00 Ry     beta=0.30
     Davidson diagonalization with overlap
     ethr =  5.89E-06,  avg # of iterations =  2.0

     total cpu time spent up to now is    182.16 secs

     total energy              =     -25.14933923 Ry
     Harris-Foulkes estimate   =     -25.14946377 Ry
     estimated scf accuracy    <       0.00019367 Ry

     iteration #  7     ecut=    30.00 Ry     beta=0.30
     Davidson diagonalization with overlap
     ethr =  1.94E-06,  avg # of iterations =  2.6

     total cpu time spent up to now is    184.52 secs

     total energy              =     -25.14939366 Ry
     Harris-Foulkes estimate   =     -25.14940387 Ry
     estimated scf accuracy    <       0.00001451 Ry

     iteration #  8     ecut=    30.00 Ry     beta=0.30
     Davidson diagonalization with overlap
     ethr =  1.45E-07,  avg # of iterations =  2.0

     total cpu time spent up to now is    186.74 secs

     total energy              =     -25.14939895 Ry
     Harris-Foulkes estimate   =     -25.14940417 Ry
     estimated scf accuracy    <       0.00001136 Ry

     iteration #  9     ecut=    30.00 Ry     beta=0.30
     Davidson diagonalization with overlap
     ethr =  1.14E-07,  avg # of iterations =  2.0

     total cpu time spent up to now is    188.80 secs

     total energy              =     -25.14940110 Ry
     Harris-Foulkes estimate   =     -25.14940077 Ry
     estimated scf accuracy    <       0.00000014 Ry

     iteration # 10     ecut=    30.00 Ry     beta=0.30
     Davidson diagonalization with overlap
     ethr =  1.41E-09,  avg # of iterations =  1.8

     total cpu time spent up to now is    190.90 secs

     total energy              =     -25.14940110 Ry
     Harris-Foulkes estimate   =     -25.14940111 Ry
     estimated scf accuracy    <       0.00000026 Ry

     iteration # 11     ecut=    30.00 Ry     beta=0.30
     Davidson diagonalization with overlap
     ethr =  1.41E-09,  avg # of iterations =  2.0

     total cpu time spent up to now is    192.90 secs

     End of self-consistent calculation

          k = 0.0000 0.0000 0.0000 (   939 PWs)   bands (ev):

   -16.8787  -9.3047  -2.3779   0.4860   0.4860   4.8159   5.5690  10.7072

          k = 0.0000 0.1115 0.0000 (   941 PWs)   bands (ev):

   -16.6472  -9.0999  -2.2888  -0.5796   0.0448   4.9747   5.8604   9.2301

          k = 0.0000 0.2230 0.0000 (   953 PWs)   bands (ev):

   -15.9576  -8.5257  -2.9644  -2.0424  -0.8932   5.4044   6.6860   8.8629

          k = 0.0000 0.3344 0.0000 (   967 PWs)   bands (ev):

   -14.8292  -7.8469  -5.3556  -2.0365  -1.7997   6.0230   7.9704   8.7548

          k = 0.0000 0.4459 0.0000 (   965 PWs)   bands (ev):

   -13.3270  -8.7882  -5.8468  -2.4334  -2.4112   6.9800   8.6030   9.8122

          k =-0.0000-0.5574-0.0000 (   972 PWs)   bands (ev):

   -12.0772 -10.2507  -5.3599  -2.8342  -2.6244   8.1434   8.4229   9.4189

          k = 0.0965 0.1672 0.0000 (   956 PWs)   bands (ev):

   -16.1866  -8.7089  -2.1759  -2.0676  -0.8339   5.2829   6.4199   9.5848

          k = 0.0965 0.2787 0.0000 (   965 PWs)   bands (ev):

   -15.2766  -8.0373  -4.2394  -2.3502  -1.7214   5.8476   7.4908   9.5526

          k = 0.0965 0.3902 0.0000 (   979 PWs)   bands (ev):

   -13.9516  -7.9274  -5.8304  -3.0377  -2.0928   6.6771   8.9683   9.5571

          k = 0.0965 0.5017 0.0000 (   977 PWs)   bands (ev):

   -12.3739  -9.6353  -5.4213  -3.3641  -2.7008   7.8814   9.5597   9.9477

          k = 0.1931 0.3344 0.0000 (   976 PWs)   bands (ev):

   -14.1657  -7.6455  -5.2740  -3.9355  -1.9887   6.6620   8.7129  10.6355

          k = 0.1931 0.4459 0.0000 (   969 PWs)   bands (ev):

   -12.6927  -8.6131  -5.4302  -4.7136  -2.5129   7.8898   9.4271  10.7520

          k = 0.1931 0.5574 0.0000 (   966 PWs)   bands (ev):

   -11.4451  -9.9287  -5.5858  -4.3007  -3.0380   8.6160  10.1764  10.3002

          k = 0.2896 0.5017 0.0000 (   978 PWs)   bands (ev):

   -11.2001  -9.6161  -6.3793  -4.2173  -3.1936   8.7040   9.6731  11.2724

     the Fermi energy is     2.6793 ev

!    total energy              =     -25.14940126 Ry
     Harris-Foulkes estimate   =     -25.14940115 Ry
     estimated scf accuracy    <          3.4E-09 Ry

     The total energy is the sum of the following terms:

     one-electron contribution =     -58.45001090 Ry
     hartree contribution      =      32.38542275 Ry
     xc contribution           =      -8.52771627 Ry
     ewald contribution        =       9.44290316 Ry
     smearing contrib. (-TS)   =      -0.00000000 Ry

     convergence has been achieved in  11 iterations

     Forces acting on atoms (Ry/au):

     atom   1 type  1   force =     0.00000000    0.00000000   -0.03394798
     atom   2 type  1   force =    -0.00000000   -0.00000000    0.03394798
     atom   3 type  2   force =     0.00000000   -0.00000000    0.03265072
     atom   4 type  2   force =    -0.00000000   -0.00000000   -0.03265072

     Total force =     0.066611     Total SCF correction =     0.000074


     entering subroutine stress ...

          total   stress  (Ry/bohr**3)                   (kbar)     P=    8.07
  -0.00013093  -0.00000000   0.00000000        -19.26     -0.00      0.00
  -0.00000000  -0.00013093   0.00000000         -0.00    -19.26      0.00
  -0.00000000  -0.00000000   0.00042638         -0.00     -0.00     62.72


     number of scf cycles    =   4
     number of bfgs steps    =   3

     enthalpy old            =     -25.1486338513 Ry
     enthalpy new            =     -25.1494012622 Ry

     CASE: enthalpy_new < enthalpy_old

     new trust radius        =       0.2123356465 bohr
     new conv_thr            =       0.0000000077 Ry

     new unit-cell volume =    275.19088 a.u.^3 (    40.77908 Ang^3 )

CELL_PARAMETERS (alat=  4.65000000)
   1.008696709  -0.000000000  -0.000000000
  -0.504348355   0.873556975  -0.000000000
  -0.000000000  -0.000000000   3.106156519

ATOMIC_POSITIONS (crystal)
C       -0.000000000  -0.000000000   0.025358151
C        0.333333333   0.666666667  -0.025358151
H        0.000000000  -0.000000000   0.181627108
H        0.333333333   0.666666667  -0.181627108



     Writing output data file graphane.save
     NEW-OLD atomic charge density approx. for the potential
     NEW k-points:
        k(    1) = (   0.0000000   0.0000000   0.0000000), wk =   0.0200000
        k(    2) = (   0.0000000   0.1144745   0.0000000), wk =   0.1200000
        k(    3) = (   0.0000000   0.2289490   0.0000000), wk =   0.1200000
        k(    4) = (   0.0000000   0.3434235   0.0000000), wk =   0.1200000
        k(    5) = (   0.0000000   0.4578980   0.0000000), wk =   0.1200000
        k(    6) = (  -0.0000000  -0.5723725  -0.0000000), wk =   0.0600000
        k(    7) = (   0.0991378   0.1717118   0.0000000), wk =   0.1200000
        k(    8) = (   0.0991378   0.2861863   0.0000000), wk =   0.2400000
        k(    9) = (   0.0991378   0.4006608   0.0000000), wk =   0.2400000
        k(   10) = (   0.0991378   0.5151353   0.0000000), wk =   0.2400000
        k(   11) = (   0.1982757   0.3434235   0.0000000), wk =   0.1200000
        k(   12) = (   0.1982757   0.4578980   0.0000000), wk =   0.2400000
        k(   13) = (   0.1982757   0.5723725   0.0000000), wk =   0.1200000
        k(   14) = (   0.2974135   0.5151353   0.0000000), wk =   0.1200000

     negative rho (up, down):  0.410E-03 0.000E+00
     extrapolated charge    9.81896, renormalised to   10.00000

     total cpu time spent up to now is    218.29 secs

     per-process dynamical memory:    30.0 Mb

     Self-consistent Calculation

     iteration #  1     ecut=    30.00 Ry     beta=0.30
     Davidson diagonalization with overlap
     ethr =  1.00E-06,  avg # of iterations =  7.6

     negative rho (up, down):  0.118E-03 0.000E+00

     total cpu time spent up to now is    222.28 secs

     total energy              =     -25.11914922 Ry
     Harris-Foulkes estimate   =     -26.22452267 Ry
     estimated scf accuracy    <       0.01188324 Ry

     iteration #  2     ecut=    30.00 Ry     beta=0.30
     Davidson diagonalization with overlap
     ethr =  1.19E-04,  avg # of iterations =  3.3

     negative rho (up, down):  0.419E-04 0.000E+00

     total cpu time spent up to now is    224.98 secs

     total energy              =     -25.13623906 Ry
     Harris-Foulkes estimate   =     -25.14021068 Ry
     estimated scf accuracy    <       0.02818182 Ry

     iteration #  3     ecut=    30.00 Ry     beta=0.30
     Davidson diagonalization with overlap
     ethr =  1.19E-04,  avg # of iterations =  1.0

     total cpu time spent up to now is    226.18 secs

     total energy              =     -25.12636939 Ry
     Harris-Foulkes estimate   =     -25.13656241 Ry
     estimated scf accuracy    <       0.01639444 Ry

     iteration #  4     ecut=    30.00 Ry     beta=0.30
     Davidson diagonalization with overlap
     ethr =  1.19E-04,  avg # of iterations =  3.1

     total cpu time spent up to now is    228.68 secs

     total energy              =     -25.13218499 Ry
     Harris-Foulkes estimate   =     -25.13271741 Ry
     estimated scf accuracy    <       0.00369845 Ry

     iteration #  5     ecut=    30.00 Ry     beta=0.30
     Davidson diagonalization with overlap
     ethr =  3.70E-05,  avg # of iterations =  1.0

     total cpu time spent up to now is    230.67 secs

     total energy              =     -25.13080287 Ry
     Harris-Foulkes estimate   =     -25.13223257 Ry
     estimated scf accuracy    <       0.00220941 Ry

     iteration #  6     ecut=    30.00 Ry     beta=0.30
     Davidson diagonalization with overlap
     ethr =  2.21E-05,  avg # of iterations =  2.8

     total cpu time spent up to now is    233.09 secs

     total energy              =     -25.13167171 Ry
     Harris-Foulkes estimate   =     -25.13164870 Ry
     estimated scf accuracy    <       0.00034491 Ry

     iteration #  7     ecut=    30.00 Ry     beta=0.30
     Davidson diagonalization with overlap
     ethr =  3.45E-06,  avg # of iterations =  1.0

     total cpu time spent up to now is    235.05 secs

     total energy              =     -25.13146951 Ry
     Harris-Foulkes estimate   =     -25.13167483 Ry
     estimated scf accuracy    <       0.00041938 Ry

     iteration #  8     ecut=    30.00 Ry     beta=0.30
     Davidson diagonalization with overlap
     ethr =  3.45E-06,  avg # of iterations =  2.3

     total cpu time spent up to now is    237.17 secs

     total energy              =     -25.13153875 Ry
     Harris-Foulkes estimate   =     -25.13153996 Ry
     estimated scf accuracy    <       0.00000252 Ry

     iteration #  9     ecut=    30.00 Ry     beta=0.30
     Davidson diagonalization with overlap
     ethr =  2.52E-08,  avg # of iterations =  2.1

     total cpu time spent up to now is    239.41 secs

     total energy              =     -25.13154057 Ry
     Harris-Foulkes estimate   =     -25.13154079 Ry
     estimated scf accuracy    <       0.00000172 Ry

     iteration # 10     ecut=    30.00 Ry     beta=0.30
     Davidson diagonalization with overlap
     ethr =  1.72E-08,  avg # of iterations =  1.0

     total cpu time spent up to now is    241.38 secs

     total energy              =     -25.13154057 Ry
     Harris-Foulkes estimate   =     -25.13154066 Ry
     estimated scf accuracy    <       0.00000043 Ry

     iteration # 11     ecut=    30.00 Ry     beta=0.30
     Davidson diagonalization with overlap
     ethr =  4.33E-09,  avg # of iterations =  2.0

     total cpu time spent up to now is    243.30 secs

     End of self-consistent calculation

          k = 0.0000 0.0000 0.0000 (   939 PWs)   bands (ev):

   -17.6203  -9.1407  -2.2284   0.0440   0.0440   4.4944   5.1519  11.6499

          k = 0.0000 0.1145 0.0000 (   941 PWs)   bands (ev):

   -17.3778  -8.9011  -2.0834  -1.0207  -0.4326   4.8110   5.3381   9.7353

          k = 0.0000 0.2289 0.0000 (   953 PWs)   bands (ev):

   -16.6544  -8.2117  -3.4389  -1.6928  -1.4435   5.6828   5.7998   9.3700

          k = 0.0000 0.3434 0.0000 (   967 PWs)   bands (ev):

   -15.4658  -7.3484  -5.9714  -2.4184  -1.4285   6.2721   7.0221   9.2720

          k = 0.0000 0.4579 0.0000 (   965 PWs)   bands (ev):

   -13.8622  -9.0887  -5.5874  -3.0751  -1.7121   6.9466   8.3235   9.6436

          k =-0.0000-0.5724-0.0000 (   972 PWs)   bands (ev):

   -12.4261 -10.8613  -4.8288  -3.3036  -2.1748   7.9561   8.4467   9.2835

          k = 0.0991 0.1717 0.0000 (   956 PWs)   bands (ev):

   -16.8948  -8.4353  -2.5314  -1.8956  -1.3314   5.4069   5.6743  10.0078

          k = 0.0991 0.2862 0.0000 (   965 PWs)   bands (ev):

   -15.9383  -7.5921  -4.8039  -2.7421  -1.4150   6.1753   6.5339  10.0154

          k = 0.0991 0.4007 0.0000 (   979 PWs)   bands (ev):

   -14.5359  -7.8308  -5.9711  -3.6311  -1.4511   6.7323   8.0768  10.0812

          k = 0.0991 0.5151 0.0000 (   977 PWs)   bands (ev):

   -12.8143 -10.0935  -4.9889  -4.0024  -2.0277   7.7256   9.1423  10.2962

          k = 0.1983 0.3434 0.0000 (   976 PWs)   bands (ev):

   -14.7652  -7.1737  -5.7493  -4.5743  -1.3525   6.7738   7.8728  11.3733

          k = 0.1983 0.4579 0.0000 (   969 PWs)   bands (ev):

   -13.1905  -8.7815  -5.7762  -4.8333  -1.7930   7.7474   9.4459  10.1671

          k = 0.1983 0.5724 0.0000 (   966 PWs)   bands (ev):

   -11.7723 -10.3959  -6.0961  -4.0303  -2.3571   8.6520   9.6104  10.3612

          k = 0.2974 0.5151 0.0000 (   978 PWs)   bands (ev):

   -11.5645  -9.8441  -7.2748  -3.7262  -2.5160   9.2157   9.2707  10.2878

     the Fermi energy is     2.7070 ev

!    total energy              =     -25.13154080 Ry
     Harris-Foulkes estimate   =     -25.13154067 Ry
     estimated scf accuracy    <          3.0E-09 Ry

     The total energy is the sum of the following terms:

     one-electron contribution =     -64.76838195 Ry
     hartree contribution      =      35.49174883 Ry
     xc contribution           =      -8.51855157 Ry
     ewald contribution        =      12.66364389 Ry
     smearing contrib. (-TS)   =      -0.00000000 Ry

     convergence has been achieved in  11 iterations

     Forces acting on atoms (Ry/au):

     atom   1 type  1   force =     0.00000000    0.00000000    0.13171856
     atom   2 type  1   force =    -0.00000000   -0.00000000   -0.13171856
     atom   3 type  2   force =    -0.00000000    0.00000000   -0.06205035
     atom   4 type  2   force =    -0.00000000   -0.00000000    0.06205035

     Total force =     0.205913     Total SCF correction =     0.000024


     entering subroutine stress ...

          total   stress  (Ry/bohr**3)                   (kbar)     P=   20.16
   0.00065068  -0.00000000   0.00000000         95.72     -0.00      0.00
  -0.00000000   0.00065068   0.00000000         -0.00     95.72      0.00
   0.00000000   0.00000000  -0.00089019          0.00      0.00   -130.95


     number of scf cycles    =   5
     number of bfgs steps    =   4

     enthalpy old            =     -25.1494012622 Ry
     enthalpy new            =     -25.1315408006 Ry

     CASE: enthalpy_new > enthalpy_old

     new trust radius        =       0.0857568074 bohr
     new conv_thr            =       0.0000000077 Ry

     new unit-cell volume =    278.32338 a.u.^3 (    41.24327 Ang^3 )

CELL_PARAMETERS (alat=  4.65000000)
   1.025000984  -0.000000000   0.000000000
  -0.512500492   0.887676891  -0.000000000
  -0.000000000  -0.000000000   3.042367229

ATOMIC_POSITIONS (crystal)
C       -0.000000000  -0.000000000   0.028963354
C        0.333333333   0.666666667  -0.028963354
H        0.000000000  -0.000000000   0.179484403
H        0.333333333   0.666666667  -0.179484403



     Writing output data file graphane.save
     NEW-OLD atomic charge density approx. for the potential
     NEW k-points:
        k(    1) = (   0.0000000   0.0000000   0.0000000), wk =   0.0200000
        k(    2) = (   0.0000000   0.1126536   0.0000000), wk =   0.1200000
        k(    3) = (   0.0000000   0.2253072   0.0000000), wk =   0.1200000
        k(    4) = (   0.0000000   0.3379608   0.0000000), wk =   0.1200000
        k(    5) = (   0.0000000   0.4506144   0.0000000), wk =   0.1200000
        k(    6) = (  -0.0000000  -0.5632680  -0.0000000), wk =   0.0600000
        k(    7) = (   0.0975609   0.1689804   0.0000000), wk =   0.1200000
        k(    8) = (   0.0975609   0.2816340   0.0000000), wk =   0.2400000
        k(    9) = (   0.0975609   0.3942876   0.0000000), wk =   0.2400000
        k(   10) = (   0.0975609   0.5069412   0.0000000), wk =   0.2400000
        k(   11) = (   0.1951218   0.3379608   0.0000000), wk =   0.1200000
        k(   12) = (   0.1951218   0.4506144   0.0000000), wk =   0.2400000
        k(   13) = (   0.1951218   0.5632680   0.0000000), wk =   0.1200000
        k(   14) = (   0.2926826   0.5069412   0.0000000), wk =   0.1200000
     extrapolated charge   10.11038, renormalised to   10.00000

     total cpu time spent up to now is    265.87 secs

     per-process dynamical memory:    30.0 Mb

     Self-consistent Calculation

     iteration #  1     ecut=    30.00 Ry     beta=0.30
     Davidson diagonalization with overlap
     ethr =  1.00E-06,  avg # of iterations =  7.1

     total cpu time spent up to now is    269.45 secs

     total energy              =     -25.14548970 Ry
     Harris-Foulkes estimate   =     -24.53356447 Ry
     estimated scf accuracy    <       0.00410759 Ry

     iteration #  2     ecut=    30.00 Ry     beta=0.30
     Davidson diagonalization with overlap
     ethr =  4.11E-05,  avg # of iterations =  3.3

     total cpu time spent up to now is    272.14 secs

     total energy              =     -25.15120761 Ry
     Harris-Foulkes estimate   =     -25.15236075 Ry
     estimated scf accuracy    <       0.00765239 Ry

     iteration #  3     ecut=    30.00 Ry     beta=0.30
     Davidson diagonalization with overlap
     ethr =  4.11E-05,  avg # of iterations =  1.0

     total cpu time spent up to now is    274.04 secs

     total energy              =     -25.14843425 Ry
     Harris-Foulkes estimate   =     -25.15129128 Ry
     estimated scf accuracy    <       0.00453885 Ry

     iteration #  4     ecut=    30.00 Ry     beta=0.30
     Davidson diagonalization with overlap
     ethr =  4.11E-05,  avg # of iterations =  2.6

     total cpu time spent up to now is    276.43 secs

     total energy              =     -25.14969591 Ry
     Harris-Foulkes estimate   =     -25.15018379 Ry
     estimated scf accuracy    <       0.00113674 Ry

     iteration #  5     ecut=    30.00 Ry     beta=0.30
     Davidson diagonalization with overlap
     ethr =  1.14E-05,  avg # of iterations =  2.2

     total cpu time spent up to now is    278.63 secs

     total energy              =     -25.14977490 Ry
     Harris-Foulkes estimate   =     -25.14982473 Ry
     estimated scf accuracy    <       0.00007719 Ry

     iteration #  6     ecut=    30.00 Ry     beta=0.30
     Davidson diagonalization with overlap
     ethr =  7.72E-07,  avg # of iterations =  2.8

     total cpu time spent up to now is    281.17 secs

     total energy              =     -25.14980547 Ry
     Harris-Foulkes estimate   =     -25.14981297 Ry
     estimated scf accuracy    <       0.00002456 Ry

     iteration #  7     ecut=    30.00 Ry     beta=0.30
     Davidson diagonalization with overlap
     ethr =  2.46E-07,  avg # of iterations =  1.9

     total cpu time spent up to now is    283.27 secs

     total energy              =     -25.14980716 Ry
     Harris-Foulkes estimate   =     -25.14980782 Ry
     estimated scf accuracy    <       0.00000326 Ry

     iteration #  8     ecut=    30.00 Ry     beta=0.30
     Davidson diagonalization with overlap
     ethr =  3.26E-08,  avg # of iterations =  2.0

     total cpu time spent up to now is    285.46 secs

     total energy              =     -25.14980844 Ry
     Harris-Foulkes estimate   =     -25.14980793 Ry
     estimated scf accuracy    <       0.00000006 Ry

     iteration #  9     ecut=    30.00 Ry     beta=0.30
     Davidson diagonalization with overlap
     ethr =  6.47E-10,  avg # of iterations =  1.7

     total cpu time spent up to now is    288.64 secs

     total energy              =     -25.14980868 Ry
     Harris-Foulkes estimate   =     -25.14980845 Ry
     estimated scf accuracy    <       0.00000009 Ry

     iteration # 10     ecut=    30.00 Ry     beta=0.30
     Davidson diagonalization with overlap
     ethr =  6.47E-10,  avg # of iterations =  1.2

     total cpu time spent up to now is    291.69 secs

     total energy              =     -25.14980880 Ry
     Harris-Foulkes estimate   =     -25.14980868 Ry
     estimated scf accuracy    <       0.00000003 Ry

     iteration # 11     ecut=    30.00 Ry     beta=0.30
     Davidson diagonalization with overlap
     ethr =  2.79E-10,  avg # of iterations =  2.0

     total cpu time spent up to now is    294.68 secs

     End of self-consistent calculation

          k = 0.0000 0.0000 0.0000 (   939 PWs)   bands (ev):

   -17.1576  -9.2154  -2.2990   0.3242   0.3242   4.9473   5.1569  11.1046

          k = 0.0000 0.1127 0.0000 (   941 PWs)   bands (ev):

   -16.9214  -8.9966  -2.1877  -0.7424  -0.1309   5.1149   5.4595   9.4368

          k = 0.0000 0.2253 0.0000 (   953 PWs)   bands (ev):

   -16.2178  -8.3760  -3.1383  -1.8919  -1.0975   5.5521   6.3056   9.0670

          k = 0.0000 0.3380 0.0000 (   967 PWs)   bands (ev):

   -15.0643  -7.6239  -5.5930  -2.0308  -1.7881   6.1205   7.6137   8.9560

          k = 0.0000 0.4506 0.0000 (   965 PWs)   bands (ev):

   -13.5196  -8.8605  -5.7625  -2.6600  -2.1504   6.9940   8.5739   9.7120

          k =-0.0000-0.5633-0.0000 (   972 PWs)   bands (ev):

   -12.1963 -10.4606  -5.1538  -2.8792  -2.5778   8.1002   8.5310   9.3078

          k = 0.0976 0.1690 0.0000 (   956 PWs)   bands (ev):

   -16.4516  -8.5754  -2.2417  -2.0382  -1.0256   5.4303   6.0353   9.7626

          k = 0.0976 0.2816 0.0000 (   965 PWs)   bands (ev):

   -15.5222  -7.8362  -4.4549  -2.4341  -1.6461   5.9695   7.1325   9.7482

          k = 0.0976 0.3943 0.0000 (   979 PWs)   bands (ev):

   -14.1647  -7.8204  -5.9251  -3.2436  -1.8540   6.7116   8.6472   9.7579

          k = 0.0976 0.5069 0.0000 (   977 PWs)   bands (ev):

   -12.5273  -9.7824  -5.2531  -3.6023  -2.4465   7.8542   9.5070  10.0720

          k = 0.1951 0.3380 0.0000 (   976 PWs)   bands (ev):

   -14.3852  -7.4186  -5.4742  -4.1647  -1.7439   6.7119   8.4236  11.3648

          k = 0.1951 0.4506 0.0000 (   969 PWs)   bands (ev):

   -12.8693  -8.6326  -5.4934  -4.8399  -2.2376   7.8604   9.5950  10.3820

          k = 0.1951 0.5633 0.0000 (   966 PWs)   bands (ev):

   -11.5536 -10.0788  -5.7391  -4.2411  -2.7754   8.6809  10.0257  10.3228

          k = 0.2927 0.5069 0.0000 (   978 PWs)   bands (ev):

   -11.3206  -9.6751  -6.7188  -4.0351  -2.9348   8.9098   9.5573  10.9225

     the Fermi energy is     2.6556 ev

!    total energy              =     -25.14980892 Ry
     Harris-Foulkes estimate   =     -25.14980880 Ry
     estimated scf accuracy    <          1.7E-10 Ry

     The total energy is the sum of the following terms:

     one-electron contribution =     -60.88189282 Ry
     hartree contribution      =      33.58287855 Ry
     xc contribution           =      -8.52068562 Ry
     ewald contribution        =      10.66989097 Ry
     smearing contrib. (-TS)   =      -0.00000000 Ry

     convergence has been achieved in  11 iterations

     Forces acting on atoms (Ry/au):

     atom   1 type  1   force =    -0.00000000    0.00000000    0.04105879
     atom   2 type  1   force =    -0.00000000   -0.00000000   -0.04105879
     atom   3 type  2   force =    -0.00000000   -0.00000000   -0.01364100
     atom   4 type  2   force =     0.00000000    0.00000000    0.01364100

     Total force =     0.061187     Total SCF correction =     0.000013


     entering subroutine stress ...

          total   stress  (Ry/bohr**3)                   (kbar)     P=    6.41
   0.00015535  -0.00000000   0.00000000         22.85     -0.00      0.00
  -0.00000000   0.00015535   0.00000000         -0.00     22.85      0.00
   0.00000000   0.00000000  -0.00017999          0.00      0.00    -26.48


     number of scf cycles    =   6
     number of bfgs steps    =   4

     enthalpy old            =     -25.1494012622 Ry
     enthalpy new            =     -25.1498089153 Ry

     CASE: enthalpy_new < enthalpy_old

     new trust radius        =       0.0421435657 bohr
     new conv_thr            =       0.0000000041 Ry

     new unit-cell volume =    281.29829 a.u.^3 (    41.68411 Ang^3 )

CELL_PARAMETERS (alat=  4.65000000)
   1.031321097  -0.000000000   0.000000000
  -0.515660548   0.893150269  -0.000000000
  -0.000000000  -0.000000000   3.037314738

ATOMIC_POSITIONS (crystal)
C       -0.000000000  -0.000000000   0.030501244
C        0.333333333   0.666666667  -0.030501244
H        0.000000000  -0.000000000   0.179162701
H        0.333333333   0.666666667  -0.179162701



     Writing output data file graphane.save
     NEW-OLD atomic charge density approx. for the potential
     NEW k-points:
        k(    1) = (   0.0000000   0.0000000   0.0000000), wk =   0.0200000
        k(    2) = (   0.0000000   0.1119632   0.0000000), wk =   0.1200000
        k(    3) = (   0.0000000   0.2239265   0.0000000), wk =   0.1200000
        k(    4) = (   0.0000000   0.3358897   0.0000000), wk =   0.1200000
        k(    5) = (   0.0000000   0.4478530   0.0000000), wk =   0.1200000
        k(    6) = (  -0.0000000  -0.5598162  -0.0000000), wk =   0.0600000
        k(    7) = (   0.0969630   0.1679449   0.0000000), wk =   0.1200000
        k(    8) = (   0.0969630   0.2799081   0.0000000), wk =   0.2400000
        k(    9) = (   0.0969630   0.3918713   0.0000000), wk =   0.2400000
        k(   10) = (   0.0969630   0.5038346   0.0000000), wk =   0.2400000
        k(   11) = (   0.1939260   0.3358897   0.0000000), wk =   0.1200000
        k(   12) = (   0.1939260   0.4478530   0.0000000), wk =   0.2400000
        k(   13) = (   0.1939260   0.5598162   0.0000000), wk =   0.1200000
        k(   14) = (   0.2908890   0.5038346   0.0000000), wk =   0.1200000
     extrapolated charge   10.10372, renormalised to   10.00000

     total cpu time spent up to now is    324.48 secs

     per-process dynamical memory:    30.0 Mb

     Self-consistent Calculation

     iteration #  1     ecut=    30.00 Ry     beta=0.30
     Davidson diagonalization with overlap
     ethr =  1.00E-06,  avg # of iterations =  5.9

     total cpu time spent up to now is    326.33 secs

     total energy              =     -25.14457145 Ry
     Harris-Foulkes estimate   =     -24.58052101 Ry
     estimated scf accuracy    <       0.00552915 Ry

     iteration #  2     ecut=    30.00 Ry     beta=0.30
     Davidson diagonalization with overlap
     ethr =  5.53E-05,  avg # of iterations =  3.2

     total cpu time spent up to now is    329.02 secs

     total energy              =     -25.15152519 Ry
     Harris-Foulkes estimate   =     -25.15244949 Ry
     estimated scf accuracy    <       0.00389823 Ry

     iteration #  3     ecut=    30.00 Ry     beta=0.30
     Davidson diagonalization with overlap
     ethr =  3.90E-05,  avg # of iterations =  1.0

     total cpu time spent up to now is    330.90 secs

     total energy              =     -25.15051587 Ry
     Harris-Foulkes estimate   =     -25.15163149 Ry
     estimated scf accuracy    <       0.00159794 Ry

     iteration #  4     ecut=    30.00 Ry     beta=0.30
     Davidson diagonalization with overlap
     ethr =  1.60E-05,  avg # of iterations =  2.5

     total cpu time spent up to now is    333.29 secs

     total energy              =     -25.15114247 Ry
     Harris-Foulkes estimate   =     -25.15125521 Ry
     estimated scf accuracy    <       0.00049580 Ry

     iteration #  5     ecut=    30.00 Ry     beta=0.30
     Davidson diagonalization with overlap
     ethr =  4.96E-06,  avg # of iterations =  1.0

     total cpu time spent up to now is    335.40 secs

     total energy              =     -25.15103620 Ry
     Harris-Foulkes estimate   =     -25.15115622 Ry
     estimated scf accuracy    <       0.00020870 Ry

     iteration #  6     ecut=    30.00 Ry     beta=0.30
     Davidson diagonalization with overlap
     ethr =  2.09E-06,  avg # of iterations =  2.5

     total cpu time spent up to now is    337.83 secs

     total energy              =     -25.15108659 Ry
     Harris-Foulkes estimate   =     -25.15108662 Ry
     estimated scf accuracy    <       0.00000199 Ry

     iteration #  7     ecut=    30.00 Ry     beta=0.30
     Davidson diagonalization with overlap
     ethr =  1.99E-08,  avg # of iterations =  1.8

     total cpu time spent up to now is    339.98 secs

     total energy              =     -25.15108649 Ry
     Harris-Foulkes estimate   =     -25.15108681 Ry
     estimated scf accuracy    <       0.00000098 Ry

     iteration #  8     ecut=    30.00 Ry     beta=0.30
     Davidson diagonalization with overlap
     ethr =  9.75E-09,  avg # of iterations =  2.0

     total cpu time spent up to now is    342.15 secs

     total energy              =     -25.15108674 Ry
     Harris-Foulkes estimate   =     -25.15108666 Ry
     estimated scf accuracy    <       0.00000001 Ry

     iteration #  9     ecut=    30.00 Ry     beta=0.30
     Davidson diagonalization with overlap
     ethr =  1.09E-10,  avg # of iterations =  2.0

     total cpu time spent up to now is    344.34 secs

     total energy              =     -25.15108678 Ry
     Harris-Foulkes estimate   =     -25.15108674 Ry
     estimated scf accuracy    <          5.5E-09 Ry

     iteration # 10     ecut=    30.00 Ry     beta=0.30
     Davidson diagonalization with overlap
     ethr =  5.50E-11,  avg # of iterations =  2.0

     total cpu time spent up to now is    346.50 secs

     total energy              =     -25.15108679 Ry
     Harris-Foulkes estimate   =     -25.15108678 Ry
     estimated scf accuracy    <       0.00000002 Ry

     iteration # 11     ecut=    30.00 Ry     beta=0.30
     Davidson diagonalization with overlap
     ethr =  5.50E-11,  avg # of iterations =  2.0

     total cpu time spent up to now is    348.61 secs

     End of self-consistent calculation

          k = 0.0000 0.0000 0.0000 (   939 PWs)   bands (ev):

   -16.9876  -9.2415  -2.4141   0.4206   0.4206   4.8257   5.2683  10.8671

          k = 0.0000 0.1120 0.0000 (   941 PWs)   bands (ev):

   -16.7540  -9.0300  -2.3117  -0.6468  -0.0264   4.9917   5.5648   9.2810

          k = 0.0000 0.2239 0.0000 (   953 PWs)   bands (ev):

   -16.0580  -8.4333  -3.0378  -2.0341  -0.9760   5.4313   6.3995   8.9065

          k = 0.0000 0.3359 0.0000 (   967 PWs)   bands (ev):

   -14.9181  -7.7162  -5.4622  -1.9674  -1.8934   6.0251   7.6979   8.8017

          k = 0.0000 0.4479 0.0000 (   965 PWs)   bands (ev):

   -13.3961  -8.7931  -5.8055  -2.5119  -2.3308   6.9261   8.5674   9.6677

          k =-0.0000-0.5598-0.0000 (   972 PWs)   bands (ev):

   -12.1124 -10.3246  -5.2561  -2.7372  -2.7275   8.0408   8.4598   9.2831

          k = 0.0970 0.1679 0.0000 (   956 PWs)   bands (ev):

   -16.2892  -8.6244  -2.1721  -2.1409  -0.9159   5.3077   6.1315   9.6068

          k = 0.0970 0.2799 0.0000 (   965 PWs)   bands (ev):

   -15.3703  -7.9193  -4.3340  -2.3757  -1.7399   5.8634   7.2146   9.5845

          k = 0.0970 0.3919 0.0000 (   979 PWs)   bands (ev):

   -14.0303  -7.8429  -5.8787  -3.1167  -2.0204   6.6422   8.7163   9.6069

          k = 0.0970 0.5038 0.0000 (   977 PWs)   bands (ev):

   -12.4247  -9.6790  -5.3355  -3.4608  -2.6066   7.7961   9.5232   9.9251

          k = 0.1939 0.3359 0.0000 (   976 PWs)   bands (ev):

   -14.2473  -7.5092  -5.3701  -4.0247  -1.9154   6.6386   8.4764  11.2246

          k = 0.1939 0.4479 0.0000 (   969 PWs)   bands (ev):

   -12.7542  -8.5933  -5.4387  -4.7790  -2.4087   7.8134   9.4406  10.4516

          k = 0.1939 0.5598 0.0000 (   966 PWs)   bands (ev):

   -11.4748  -9.9742  -5.6310  -4.2827  -2.9313   8.5697  10.0310  10.2305

          k = 0.2909 0.5038 0.0000 (   978 PWs)   bands (ev):

   -11.2348  -9.6196  -6.5197  -4.1363  -3.0850   8.7255   9.5414  11.0016

     the Fermi energy is     2.6123 ev

!    total energy              =     -25.15108681 Ry
     Harris-Foulkes estimate   =     -25.15108679 Ry
     estimated scf accuracy    <          1.2E-09 Ry

     The total energy is the sum of the following terms:

     one-electron contribution =     -59.89758323 Ry
     hartree contribution      =      33.09169706 Ry
     xc contribution           =      -8.50809405 Ry
     ewald contribution        =      10.16289341 Ry
     smearing contrib. (-TS)   =      -0.00000000 Ry

     convergence has been achieved in  11 iterations

     Forces acting on atoms (Ry/au):

     atom   1 type  1   force =    -0.00000000   -0.00000000    0.00192039
     atom   2 type  1   force =     0.00000000    0.00000000   -0.00192039
     atom   3 type  2   force =     0.00000000   -0.00000000   -0.00022205
     atom   4 type  2   force =     0.00000000    0.00000000    0.00022205

     Total force =     0.002734     Total SCF correction =     0.000034


     entering subroutine stress ...

          total   stress  (Ry/bohr**3)                   (kbar)     P=   -4.73
  -0.00002472  -0.00000000  -0.00000000         -3.64     -0.00     -0.00
  -0.00000000  -0.00002472  -0.00000000         -0.00     -3.64     -0.00
   0.00000000   0.00000000  -0.00004705          0.00      0.00     -6.92


     number of scf cycles    =   7
     number of bfgs steps    =   5

     enthalpy old            =     -25.1498089153 Ry
     enthalpy new            =     -25.1510868111 Ry

     CASE: enthalpy_new < enthalpy_old

     new trust radius        =       0.0071036359 bohr
     new conv_thr            =       0.0000000019 Ry

     new unit-cell volume =    280.29472 a.u.^3 (    41.53539 Ang^3 )

CELL_PARAMETERS (alat=  4.65000000)
   1.030453387  -0.000000000   0.000000000
  -0.515226693   0.892398810  -0.000000000
  -0.000000000  -0.000000000   3.031577823

ATOMIC_POSITIONS (crystal)
C       -0.000000000  -0.000000000   0.030539208
C        0.333333333   0.666666667  -0.030539208
H        0.000000000  -0.000000000   0.179174220
H        0.333333333   0.666666667  -0.179174220



     Writing output data file graphane.save
     NEW-OLD atomic charge density approx. for the potential
     NEW k-points:
        k(    1) = (   0.0000000   0.0000000   0.0000000), wk =   0.0200000
        k(    2) = (   0.0000000   0.1120575   0.0000000), wk =   0.1200000
        k(    3) = (   0.0000000   0.2241150   0.0000000), wk =   0.1200000
        k(    4) = (   0.0000000   0.3361726   0.0000000), wk =   0.1200000
        k(    5) = (   0.0000000   0.4482301   0.0000000), wk =   0.1200000
        k(    6) = (  -0.0000000  -0.5602876  -0.0000000), wk =   0.0600000
        k(    7) = (   0.0970447   0.1680863   0.0000000), wk =   0.1200000
        k(    8) = (   0.0970447   0.2801438   0.0000000), wk =   0.2400000
        k(    9) = (   0.0970447   0.3922013   0.0000000), wk =   0.2400000
        k(   10) = (   0.0970447   0.5042589   0.0000000), wk =   0.2400000
        k(   11) = (   0.1940893   0.3361726   0.0000000), wk =   0.1200000
        k(   12) = (   0.1940893   0.4482301   0.0000000), wk =   0.2400000
        k(   13) = (   0.1940893   0.5602876   0.0000000), wk =   0.1200000
        k(   14) = (   0.2911340   0.5042589   0.0000000), wk =   0.1200000
     extrapolated charge    9.96489, renormalised to   10.00000

     total cpu time spent up to now is    375.04 secs

     per-process dynamical memory:    30.0 Mb

     Self-consistent Calculation

     iteration #  1     ecut=    30.00 Ry     beta=0.30
     Davidson diagonalization with overlap
     ethr =  1.00E-06,  avg # of iterations =  3.4

     total cpu time spent up to now is    377.96 secs

     total energy              =     -25.15033551 Ry
     Harris-Foulkes estimate   =     -25.34447839 Ry
     estimated scf accuracy    <       0.00076890 Ry

     iteration #  2     ecut=    30.00 Ry     beta=0.30
     Davidson diagonalization with overlap
     ethr =  7.69E-06,  avg # of iterations =  3.1

     total cpu time spent up to now is    380.72 secs

     total energy              =     -25.15113317 Ry
     Harris-Foulkes estimate   =     -25.15122197 Ry
     estimated scf accuracy    <       0.00033282 Ry

     iteration #  3     ecut=    30.00 Ry     beta=0.30
     Davidson diagonalization with overlap
     ethr =  3.33E-06,  avg # of iterations =  1.0

     total cpu time spent up to now is    382.88 secs

     total energy              =     -25.15107863 Ry
     Harris-Foulkes estimate   =     -25.15114533 Ry
     estimated scf accuracy    <       0.00011471 Ry

     iteration #  4     ecut=    30.00 Ry     beta=0.30
     Davidson diagonalization with overlap
     ethr =  1.15E-06,  avg # of iterations =  2.4

     total cpu time spent up to now is    385.43 secs

     total energy              =     -25.15111279 Ry
     Harris-Foulkes estimate   =     -25.15110845 Ry
     estimated scf accuracy    <       0.00000230 Ry

     iteration #  5     ecut=    30.00 Ry     beta=0.30
     Davidson diagonalization with overlap
     ethr =  2.30E-08,  avg # of iterations =  2.0

     total cpu time spent up to now is    387.63 secs

     total energy              =     -25.15111020 Ry
     Harris-Foulkes estimate   =     -25.15111467 Ry
     estimated scf accuracy    <       0.00001878 Ry

     iteration #  6     ecut=    30.00 Ry     beta=0.30
     Davidson diagonalization with overlap
     ethr =  2.30E-08,  avg # of iterations =  2.0

     total cpu time spent up to now is    389.76 secs

     total energy              =     -25.15110669 Ry
     Harris-Foulkes estimate   =     -25.15111075 Ry
     estimated scf accuracy    <       0.00000723 Ry

     iteration #  7     ecut=    30.00 Ry     beta=0.30
     Davidson diagonalization with overlap
     ethr =  2.30E-08,  avg # of iterations =  2.0

     total cpu time spent up to now is    392.04 secs

     total energy              =     -25.15110834 Ry
     Harris-Foulkes estimate   =     -25.15110832 Ry
     estimated scf accuracy    <       0.00000003 Ry

     iteration #  8     ecut=    30.00 Ry     beta=0.30
     Davidson diagonalization with overlap
     ethr =  3.26E-10,  avg # of iterations =  2.0

     total cpu time spent up to now is    394.11 secs

     total energy              =     -25.15110835 Ry
     Harris-Foulkes estimate   =     -25.15110834 Ry
     estimated scf accuracy    <          4.9E-09 Ry

     iteration #  9     ecut=    30.00 Ry     beta=0.30
     Davidson diagonalization with overlap
     ethr =  4.93E-11,  avg # of iterations =  2.0

     total cpu time spent up to now is    396.17 secs

     End of self-consistent calculation

          k = 0.0000 0.0000 0.0000 (   939 PWs)   bands (ev):

   -16.9907  -9.2453  -2.3984   0.4441   0.4441   4.8466   5.3051  10.9223

          k = 0.0000 0.1121 0.0000 (   941 PWs)   bands (ev):

   -16.7567  -9.0334  -2.2961  -0.6247  -0.0041   5.0125   5.6022   9.3187

          k = 0.0000 0.2241 0.0000 (   953 PWs)   bands (ev):

   -16.0595  -8.4352  -3.0202  -2.0182  -0.9561   5.4526   6.4385   8.9455

          k = 0.0000 0.3362 0.0000 (   967 PWs)   bands (ev):

   -14.9176  -7.7141  -5.4509  -1.9532  -1.8756   6.0491   7.7392   8.8396

          k = 0.0000 0.4482 0.0000 (   965 PWs)   bands (ev):

   -13.3927  -8.7849  -5.8026  -2.4956  -2.3192   6.9550   8.6055   9.7092

          k =-0.0000-0.5603-0.0000 (   972 PWs)   bands (ev):

   -12.1052 -10.3201  -5.2525  -2.7272  -2.7117   8.0724   8.4984   9.3186

          k = 0.0970 0.1681 0.0000 (   956 PWs)   bands (ev):

   -16.2911  -8.6268  -2.1570  -2.1208  -0.8959   5.3288   6.1700   9.6461

          k = 0.0970 0.2801 0.0000 (   965 PWs)   bands (ev):

   -15.3706  -7.9194  -4.3184  -2.3609  -1.7230   5.8859   7.2551   9.6245

          k = 0.0970 0.3922 0.0000 (   979 PWs)   bands (ev):

   -14.0282  -7.8351  -5.8734  -3.1022  -2.0069   6.6686   8.7592   9.6444

          k = 0.0970 0.5043 0.0000 (   977 PWs)   bands (ev):

   -12.4190  -9.6722  -5.3318  -3.4469  -2.5960   7.8270   9.5630   9.9589

          k = 0.1941 0.3362 0.0000 (   976 PWs)   bands (ev):

   -14.2456  -7.5036  -5.3597  -4.0132  -1.9014   6.6640   8.5184  11.2687

          k = 0.1941 0.4482 0.0000 (   969 PWs)   bands (ev):

   -12.7496  -8.5832  -5.4330  -4.7703  -2.3973   7.8437   9.4697  10.5013

          k = 0.1941 0.5603 0.0000 (   966 PWs)   bands (ev):

   -11.4668  -9.9673  -5.6236  -4.2751  -2.9219   8.5987  10.0696  10.2671

          k = 0.2911 0.5043 0.0000 (   978 PWs)   bands (ev):

   -11.2271  -9.6095  -6.5143  -4.1298  -3.0759   8.7502   9.5789  11.0516

     the Fermi energy is     2.6418 ev

!    total energy              =     -25.15110837 Ry
     Harris-Foulkes estimate   =     -25.15110836 Ry
     estimated scf accuracy    <          1.9E-09 Ry

     The total energy is the sum of the following terms:

     one-electron contribution =     -59.81461261 Ry
     hartree contribution      =      33.05769635 Ry
     xc contribution           =      -8.51421032 Ry
     ewald contribution        =      10.12001821 Ry
     smearing contrib. (-TS)   =      -0.00000000 Ry

     convergence has been achieved in   9 iterations

     Forces acting on atoms (Ry/au):

     atom   1 type  1   force =    -0.00000000   -0.00000000    0.00050249
     atom   2 type  1   force =    -0.00000000   -0.00000000   -0.00050249
     atom   3 type  2   force =    -0.00000000   -0.00000000    0.00244244
     atom   4 type  2   force =    -0.00000000    0.00000000   -0.00244244

     Total force =     0.003526     Total SCF correction =     0.000034


     entering subroutine stress ...

          total   stress  (Ry/bohr**3)                   (kbar)     P=   -0.40
  -0.00000263  -0.00000000   0.00000000         -0.39     -0.00      0.00
  -0.00000000  -0.00000263   0.00000000         -0.00     -0.39      0.00
  -0.00000000  -0.00000000  -0.00000298         -0.00     -0.00     -0.44


     number of scf cycles    =   8
     number of bfgs steps    =   6

     enthalpy old            =     -25.1510868111 Ry
     enthalpy new            =     -25.1511083696 Ry

     CASE: enthalpy_new < enthalpy_old

     new trust radius        =       0.0036436828 bohr
     new conv_thr            =       0.0000000010 Ry

     new unit-cell volume =    279.94438 a.u.^3 (    41.48348 Ang^3 )

CELL_PARAMETERS (alat=  4.65000000)
   1.030150069  -0.000000000   0.000000000
  -0.515075035   0.892136130  -0.000000000
  -0.000000000  -0.000000000   3.029571925

ATOMIC_POSITIONS (crystal)
C       -0.000000000  -0.000000000   0.030584410
C        0.333333333   0.666666667  -0.030584410
H        0.000000000  -0.000000000   0.179300655
H        0.333333333   0.666666667  -0.179300655



     Writing output data file graphane.save
     NEW-OLD atomic charge density approx. for the potential
     NEW k-points:
        k(    1) = (   0.0000000   0.0000000   0.0000000), wk =   0.0200000
        k(    2) = (   0.0000000   0.1120905   0.0000000), wk =   0.1200000
        k(    3) = (   0.0000000   0.2241810   0.0000000), wk =   0.1200000
        k(    4) = (   0.0000000   0.3362716   0.0000000), wk =   0.1200000
        k(    5) = (   0.0000000   0.4483621   0.0000000), wk =   0.1200000
        k(    6) = (  -0.0000000  -0.5604526  -0.0000000), wk =   0.0600000
        k(    7) = (   0.0970732   0.1681358   0.0000000), wk =   0.1200000
        k(    8) = (   0.0970732   0.2802263   0.0000000), wk =   0.2400000
        k(    9) = (   0.0970732   0.3923168   0.0000000), wk =   0.2400000
        k(   10) = (   0.0970732   0.5044073   0.0000000), wk =   0.2400000
[...]

     iteration #  2     ecut=    30.00 Ry     beta=0.30
     Davidson diagonalization with overlap
     ethr =  1.90E-06,  avg # of iterations =  3.1

     total cpu time spent up to now is   1985.11 secs

     total energy              =     -25.15210365 Ry
     Harris-Foulkes estimate   =     -25.15213850 Ry
     estimated scf accuracy    <       0.00015071 Ry

     iteration #  3     ecut=    30.00 Ry     beta=0.30
     Davidson diagonalization with overlap
     ethr =  1.51E-06,  avg # of iterations =  1.0

     total cpu time spent up to now is   1987.02 secs

     total energy              =     -25.15206637 Ry
     Harris-Foulkes estimate   =     -25.15210779 Ry
     estimated scf accuracy    <       0.00006131 Ry

     iteration #  4     ecut=    30.00 Ry     beta=0.30
     Davidson diagonalization with overlap
     ethr =  6.13E-07,  avg # of iterations =  2.0

     total cpu time spent up to now is   1989.17 secs

     total energy              =     -25.15209239 Ry
     Harris-Foulkes estimate   =     -25.15209242 Ry
     estimated scf accuracy    <       0.00001323 Ry

     iteration #  5     ecut=    30.00 Ry     beta=0.30
     Davidson diagonalization with overlap
     ethr =  1.32E-07,  avg # of iterations =  1.0

     total cpu time spent up to now is   1990.96 secs

     total energy              =     -25.15208836 Ry
     Harris-Foulkes estimate   =     -25.15209243 Ry
     estimated scf accuracy    <       0.00001288 Ry

     iteration #  6     ecut=    30.00 Ry     beta=0.30
     Davidson diagonalization with overlap
     ethr =  1.29E-07,  avg # of iterations =  1.0

     total cpu time spent up to now is   1992.79 secs

     total energy              =     -25.15208739 Ry
     Harris-Foulkes estimate   =     -25.15208904 Ry
     estimated scf accuracy    <       0.00000316 Ry

     iteration #  7     ecut=    30.00 Ry     beta=0.30
     Davidson diagonalization with overlap
     ethr =  3.16E-08,  avg # of iterations =  2.0

     total cpu time spent up to now is   1994.90 secs

     total energy              =     -25.15208803 Ry
     Harris-Foulkes estimate   =     -25.15208801 Ry
     estimated scf accuracy    <       0.00000001 Ry

     iteration #  8     ecut=    30.00 Ry     beta=0.30
     Davidson diagonalization with overlap
     ethr =  1.09E-10,  avg # of iterations =  2.2

     total cpu time spent up to now is   1996.99 secs

     total energy              =     -25.15208804 Ry
     Harris-Foulkes estimate   =     -25.15208803 Ry
     estimated scf accuracy    <       0.00000001 Ry

     iteration #  9     ecut=    30.00 Ry     beta=0.30
     Davidson diagonalization with overlap
     ethr =  1.09E-10,  avg # of iterations =  1.0

     total cpu time spent up to now is   1999.01 secs

     total energy              =     -25.15208804 Ry
     Harris-Foulkes estimate   =     -25.15208804 Ry
     estimated scf accuracy    <       0.00000002 Ry

     iteration # 10     ecut=    30.00 Ry     beta=0.30
     Davidson diagonalization with overlap
     ethr =  1.09E-10,  avg # of iterations =  2.0

     total cpu time spent up to now is   2002.16 secs

     total energy              =     -25.15208807 Ry
     Harris-Foulkes estimate   =     -25.15208804 Ry
     estimated scf accuracy    <       0.00000003 Ry

     iteration # 11     ecut=    30.00 Ry     beta=0.30
     Davidson diagonalization with overlap
     ethr =  1.09E-10,  avg # of iterations =  2.0

     total cpu time spent up to now is   2005.47 secs

     total energy              =     -25.15208802 Ry
     Harris-Foulkes estimate   =     -25.15208808 Ry
     estimated scf accuracy    <       0.00000017 Ry

     iteration # 12     ecut=    30.00 Ry     beta=0.30
     Davidson diagonalization with overlap
     ethr =  1.09E-10,  avg # of iterations =  2.1

     total cpu time spent up to now is   2008.62 secs

     End of self-consistent calculation

          k = 0.0000 0.0000 0.0000 (   939 PWs)   bands (ev):

   -16.6938  -8.9417  -2.1282   0.7699   0.7699   5.3338   5.9960   9.7561

          k =-0.0000 0.1122 0.0000 (   941 PWs)   bands (ev):

   -16.4593  -8.7292  -2.0228  -0.3009   0.3204   5.4715   6.2949   9.6954

          k =-0.0000 0.2243 0.0000 (   953 PWs)   bands (ev):

   -15.7607  -8.1291  -2.7027  -1.7349  -0.6341   5.8322   7.1215   9.3809

          k =-0.0000 0.3365 0.0000 (   967 PWs)   bands (ev):

   -14.6164  -7.4027  -5.1408  -1.6593  -1.5558   6.3409   8.3653   9.2859

          k =-0.0000 0.4486 0.0000 (   965 PWs)   bands (ev):

   -13.0877  -8.4722  -5.4971  -2.1772  -2.0165   7.2144   8.9569  10.3271

          k = 0.0000-0.5608-0.0000 (   972 PWs)   bands (ev):

   -11.7953 -10.0137  -4.9448  -2.4224  -2.3937   8.3426   8.8355   9.5719

          k = 0.0971 0.1682 0.0000 (   956 PWs)   bands (ev):

   -15.9927  -8.3215  -1.8766  -1.7996  -0.5756   5.7358   6.8603  10.1022

          k = 0.0971 0.2804 0.0000 (   965 PWs)   bands (ev):

   -15.0704  -7.6109  -4.0031  -2.0516  -1.4241   6.2101   7.9290  10.0859

          k = 0.0971 0.3926 0.0000 (   979 PWs)   bands (ev):

   -13.7249  -7.5193  -5.5685  -2.7866  -1.7058   6.9337   9.3665  10.0510

          k = 0.0971 0.5047 0.0000 (   977 PWs)   bands (ev):

   -12.1111  -9.3624  -5.0242  -3.1319  -2.2908   8.0891   9.9001  10.2579

          k = 0.1943 0.3365 0.0000 (   976 PWs)   bands (ev):

   -13.9429  -7.1882  -5.0514  -3.7003  -1.6022   6.9362   9.1620  11.0125

          k = 0.1943 0.4486 0.0000 (   969 PWs)   bands (ev):

   -12.4433  -8.2679  -5.1247  -4.4618  -2.0923   8.0960   9.8661  10.9594

          k = 0.1943 0.5608 0.0000 (   966 PWs)   bands (ev):

   -11.1559  -9.6576  -5.3133  -3.9672  -2.6155   8.8962  10.3284  10.5684

          k = 0.2914 0.5047 0.0000 (   978 PWs)   bands (ev):

   -10.9166  -9.2951  -6.2087  -3.8225  -2.7687   9.0809   9.8278  11.3565

     the Fermi energy is     2.7949 ev

!    total energy              =     -25.15208804 Ry
     Harris-Foulkes estimate   =     -25.15208804 Ry
     estimated scf accuracy    <          6.8E-10 Ry

     The total energy is the sum of the following terms:

     one-electron contribution =     -52.46363359 Ry
     hartree contribution      =      29.49543981 Ry
     xc contribution           =      -8.51474169 Ry
     ewald contribution        =       6.33084744 Ry
     smearing contrib. (-TS)   =      -0.00000000 Ry

     convergence has been achieved in  12 iterations

     Forces acting on atoms (Ry/au):

     atom   1 type  1   force =    -0.00000000   -0.00000000   -0.00210628
     atom   2 type  1   force =    -0.00000000    0.00000000    0.00210628
     atom   3 type  2   force =    -0.00000000   -0.00000000    0.00305850
     atom   4 type  2   force =     0.00000000    0.00000000   -0.00305850

     Total force =     0.005252     Total SCF correction =     0.000015


     entering subroutine stress ...

          total   stress  (Ry/bohr**3)                   (kbar)     P=    0.34
   0.00001586  -0.00000000  -0.00000000          2.33     -0.00     -0.00
  -0.00000000   0.00001586  -0.00000000         -0.00      2.33     -0.00
   0.00000000   0.00000000  -0.00002486          0.00      0.00     -3.66


     number of scf cycles    =  49
     number of bfgs steps    =  44

     enthalpy old            =     -25.1520598657 Ry
     enthalpy new            =     -25.1520880362 Ry

     CASE: enthalpy_new < enthalpy_old

     new trust radius        =       0.0088333243 bohr
     new conv_thr            =       0.0000000010 Ry

     new unit-cell volume =    263.38836 a.u.^3 (    39.03013 Ang^3 )

CELL_PARAMETERS (alat=  4.65000000)
   1.029301231   0.000000000   0.000000000
  -0.514650615   0.891401014   0.000000000
  -0.000000000  -0.000000000   2.855105135

ATOMIC_POSITIONS (crystal)
C       -0.000000000  -0.000000000   0.032581175
C        0.333333333   0.666666667  -0.032581175
H       -0.000000000  -0.000000000   0.190358432
H        0.333333333   0.666666667  -0.190358432



     Writing output data file graphane.save
     NEW-OLD atomic charge density approx. for the potential
     NEW k-points:
        k(    1) = (   0.0000000   0.0000000   0.0000000), wk =   0.0200000
        k(    2) = (  -0.0000000   0.1121830   0.0000000), wk =   0.1200000
        k(    3) = (  -0.0000000   0.2243659   0.0000000), wk =   0.1200000
        k(    4) = (  -0.0000000   0.3365489   0.0000000), wk =   0.1200000
        k(    5) = (  -0.0000000   0.4487318   0.0000000), wk =   0.1200000
        k(    6) = (   0.0000000  -0.5609148  -0.0000000), wk =   0.0600000
        k(    7) = (   0.0971533   0.1682744   0.0000000), wk =   0.1200000
        k(    8) = (   0.0971533   0.2804574   0.0000000), wk =   0.2400000
        k(    9) = (   0.0971533   0.3926403   0.0000000), wk =   0.2400000
        k(   10) = (   0.0971533   0.5048233   0.0000000), wk =   0.2400000
        k(   11) = (   0.1943066   0.3365489   0.0000000), wk =   0.1200000
        k(   12) = (   0.1943066   0.4487318   0.0000000), wk =   0.2400000
        k(   13) = (   0.1943066   0.5609148   0.0000000), wk =   0.1200000
        k(   14) = (   0.2914599   0.5048233   0.0000000), wk =   0.1200000
     extrapolated charge    9.97772, renormalised to   10.00000

     total cpu time spent up to now is   2040.88 secs

     per-process dynamical memory:    30.0 Mb

     Self-consistent Calculation

     iteration #  1     ecut=    30.00 Ry     beta=0.30
     Davidson diagonalization with overlap
     ethr =  1.00E-06,  avg # of iterations =  3.0

     total cpu time spent up to now is   2043.55 secs

     total energy              =     -25.15187531 Ry
     Harris-Foulkes estimate   =     -25.25848396 Ry
     estimated scf accuracy    <       0.00018186 Ry

     iteration #  2     ecut=    30.00 Ry     beta=0.30
     Davidson diagonalization with overlap
     ethr =  1.82E-06,  avg # of iterations =  3.1

     total cpu time spent up to now is   2046.20 secs

     total energy              =     -25.15213662 Ry
     Harris-Foulkes estimate   =     -25.15217210 Ry
     estimated scf accuracy    <       0.00015670 Ry

     iteration #  3     ecut=    30.00 Ry     beta=0.30
     Davidson diagonalization with overlap
     ethr =  1.57E-06,  avg # of iterations =  1.0

     total cpu time spent up to now is   2048.14 secs

     total energy              =     -25.15209661 Ry
     Harris-Foulkes estimate   =     -25.15214074 Ry
     estimated scf accuracy    <       0.00006524 Ry

     iteration #  4     ecut=    30.00 Ry     beta=0.30
     Davidson diagonalization with overlap
     ethr =  6.52E-07,  avg # of iterations =  2.0

     total cpu time spent up to now is   2050.42 secs

     total energy              =     -25.15212456 Ry
     Harris-Foulkes estimate   =     -25.15212473 Ry
     estimated scf accuracy    <       0.00001483 Ry

     iteration #  5     ecut=    30.00 Ry     beta=0.30
     Davidson diagonalization with overlap
     ethr =  1.48E-07,  avg # of iterations =  1.0

     total cpu time spent up to now is   2052.40 secs

     total energy              =     -25.15211969 Ry
     Harris-Foulkes estimate   =     -25.15212460 Ry
     estimated scf accuracy    <       0.00001410 Ry

     iteration #  6     ecut=    30.00 Ry     beta=0.30
     Davidson diagonalization with overlap
     ethr =  1.41E-07,  avg # of iterations =  1.1

     total cpu time spent up to now is   2055.31 secs

     total energy              =     -25.15211922 Ry
     Harris-Foulkes estimate   =     -25.15212063 Ry
     estimated scf accuracy    <       0.00000266 Ry

     iteration #  7     ecut=    30.00 Ry     beta=0.30
     Davidson diagonalization with overlap
     ethr =  2.66E-08,  avg # of iterations =  2.0

     total cpu time spent up to now is   2058.46 secs

     total energy              =     -25.15211979 Ry
     Harris-Foulkes estimate   =     -25.15211978 Ry
     estimated scf accuracy    <       0.00000001 Ry

     iteration #  8     ecut=    30.00 Ry     beta=0.30
     Davidson diagonalization with overlap
     ethr =  1.10E-10,  avg # of iterations =  2.2

     total cpu time spent up to now is   2064.15 secs

     total energy              =     -25.15211980 Ry
     Harris-Foulkes estimate   =     -25.15211980 Ry
     estimated scf accuracy    <       0.00000001 Ry

     iteration #  9     ecut=    30.00 Ry     beta=0.30
     Davidson diagonalization with overlap
     ethr =  1.10E-10,  avg # of iterations =  1.0

     total cpu time spent up to now is   2066.21 secs

     total energy              =     -25.15211981 Ry
     Harris-Foulkes estimate   =     -25.15211981 Ry
     estimated scf accuracy    <       0.00000002 Ry

     iteration # 10     ecut=    30.00 Ry     beta=0.30
     Davidson diagonalization with overlap
     ethr =  1.10E-10,  avg # of iterations =  1.2

     total cpu time spent up to now is   2068.24 secs

     total energy              =     -25.15211991 Ry
     Harris-Foulkes estimate   =     -25.15211981 Ry
     estimated scf accuracy    <       0.00000005 Ry

     iteration # 11     ecut=    30.00 Ry     beta=0.30
     Davidson diagonalization with overlap
     ethr =  1.10E-10,  avg # of iterations =  2.6

     total cpu time spent up to now is   2070.53 secs

     total energy              =     -25.15211979 Ry
     Harris-Foulkes estimate   =     -25.15211994 Ry
     estimated scf accuracy    <       0.00000050 Ry

     iteration # 12     ecut=    30.00 Ry     beta=0.30
     Davidson diagonalization with overlap
     ethr =  1.10E-10,  avg # of iterations =  2.6

     total cpu time spent up to now is   2072.89 secs

     total energy              =     -25.15211980 Ry
     Harris-Foulkes estimate   =     -25.15211981 Ry
     estimated scf accuracy    <       0.00000003 Ry

     iteration # 13     ecut=    30.00 Ry     beta=0.30
     Davidson diagonalization with overlap
     ethr =  1.10E-10,  avg # of iterations =  2.0

     total cpu time spent up to now is   2075.08 secs

     End of self-consistent calculation

          k = 0.0000 0.0000 0.0000 (   939 PWs)   bands (ev):

   -16.6839  -8.9332  -2.1209   0.7877   0.7877   5.3510   6.0226   9.7731

          k =-0.0000 0.1122 0.0000 (   941 PWs)   bands (ev):

   -16.4493  -8.7206  -2.0153  -0.2837   0.3378   5.4880   6.3217   9.7138

          k =-0.0000 0.2244 0.0000 (   953 PWs)   bands (ev):

   -15.7504  -8.1202  -2.6873  -1.7266  -0.6173   5.8468   7.1484   9.4012

          k =-0.0000 0.3365 0.0000 (   967 PWs)   bands (ev):

   -14.6055  -7.3924  -5.1273  -1.6505  -1.5395   6.3537   8.3910   9.3071

          k =-0.0000 0.4487 0.0000 (   965 PWs)   bands (ev):

   -13.0760  -8.4591  -5.4873  -2.1612  -2.0071   7.2264   8.9766  10.3526

          k = 0.0000-0.5609-0.0000 (   972 PWs)   bands (ev):

   -11.7826 -10.0015  -4.9349  -2.4129  -2.3778   8.3544   8.8551   9.5850

          k = 0.0972 0.1683 0.0000 (   956 PWs)   bands (ev):

   -15.9825  -8.3126  -1.8686  -1.7831  -0.5590   5.7511   6.8874  10.1222

          k = 0.0972 0.2805 0.0000 (   965 PWs)   bands (ev):

   -15.0597  -7.6014  -3.9882  -2.0385  -1.4128   6.2235   7.9560  10.1065

          k = 0.0972 0.3926 0.0000 (   979 PWs)   bands (ev):

   -13.7136  -7.5067  -5.5575  -2.7717  -1.6960   6.9459   9.3921  10.0709

          k = 0.0972 0.5048 0.0000 (   977 PWs)   bands (ev):

   -12.0988  -9.3496  -5.0141  -3.1170  -2.2810   8.1011   9.9199  10.2716

          k = 0.1943 0.3365 0.0000 (   976 PWs)   bands (ev):

   -13.9317  -7.1767  -5.0386  -3.6860  -1.5926   6.9487   9.1884  11.0275

          k = 0.1943 0.4487 0.0000 (   969 PWs)   bands (ev):

   -12.4313  -8.2543  -5.1131  -4.4494  -2.0825   8.1083   9.8807  10.9822

          k = 0.1943 0.5609 0.0000 (   966 PWs)   bands (ev):

   -11.1429  -9.6448  -5.3004  -3.9562  -2.6056   8.9080  10.3422  10.5828

          k = 0.2915 0.5048 0.0000 (   978 PWs)   bands (ev):

   -10.9037  -9.2815  -6.1959  -3.8124  -2.7587   9.0924   9.8412  11.3740

     the Fermi energy is     2.8100 ev

!    total energy              =     -25.15211980 Ry
     Harris-Foulkes estimate   =     -25.15211980 Ry
     estimated scf accuracy    <          5.6E-11 Ry

     The total energy is the sum of the following terms:

     one-electron contribution =     -52.25519936 Ry
     hartree contribution      =      29.39618606 Ry
     xc contribution           =      -8.51561700 Ry
     ewald contribution        =       6.22251049 Ry
     smearing contrib. (-TS)   =      -0.00000000 Ry

     convergence has been achieved in  13 iterations

     Forces acting on atoms (Ry/au):

     atom   1 type  1   force =    -0.00000000   -0.00000000   -0.00296126
     atom   2 type  1   force =    -0.00000000   -0.00000000    0.00296126
     atom   3 type  2   force =    -0.00000000    0.00000000    0.00345806
     atom   4 type  2   force =     0.00000000   -0.00000000   -0.00345806

     Total force =     0.006439     Total SCF correction =     0.000008


     entering subroutine stress ...

          total   stress  (Ry/bohr**3)                   (kbar)     P=    1.01
   0.00002076  -0.00000000   0.00000000          3.05     -0.00      0.00
  -0.00000000   0.00002076   0.00000000         -0.00      3.05      0.00
  -0.00000000  -0.00000000  -0.00002086         -0.00     -0.00     -3.07


     The maximum number of steps has been reached.

     End of BFGS Geometry Optimization
Begin final coordinates
     new unit-cell volume =    263.38836 a.u.^3 (    39.03013 Ang^3 )

CELL_PARAMETERS (alat=  4.65000000)
   1.029301231   0.000000000   0.000000000
  -0.514650615   0.891401014   0.000000000
  -0.000000000  -0.000000000   2.855105135

ATOMIC_POSITIONS (crystal)
C       -0.000000000  -0.000000000   0.032581175
C        0.333333333   0.666666667  -0.032581175
H       -0.000000000  -0.000000000   0.190358432
H        0.333333333   0.666666667  -0.190358432
End final coordinates



     Writing output data file graphane.save

     init_run     :      5.63s CPU     12.40s WALL (       1 calls)
     electrons    :    530.95s CPU   1008.56s WALL (      50 calls)
     update_pot   :    306.41s CPU    520.85s WALL (      49 calls)
     forces       :    116.79s CPU    206.39s WALL (      50 calls)
     stress       :    179.22s CPU    303.89s WALL (      50 calls)

     Called by init_run:
     wfcinit      :      0.25s CPU      0.82s WALL (       1 calls)
     potinit      :      2.18s CPU      5.09s WALL (       1 calls)

     Called by electrons:
     c_bands      :    295.61s CPU    534.01s WALL (     545 calls)
     sum_band     :    110.10s CPU    196.23s WALL (     545 calls)
     v_of_rho     :     67.23s CPU    118.80s WALL (     593 calls)
     newd         :     50.20s CPU     92.06s WALL (     593 calls)
     mix_rho      :      5.91s CPU     10.64s WALL (     545 calls)

     Called by c_bands:
     init_us_2    :     10.92s CPU     19.71s WALL (   16674 calls)
     cegterg      :    282.62s CPU    506.96s WALL (    7630 calls)

     Called by *egterg:
     h_psi        :    237.83s CPU    426.44s WALL (   22568 calls)
     s_psi        :      7.09s CPU     13.33s WALL (   22568 calls)
     g_psi        :      1.91s CPU      3.19s WALL (   14924 calls)
     cdiaghg      :      7.53s CPU     13.85s WALL (   21840 calls)

     Called by h_psi:
     add_vuspsi   :      8.16s CPU     14.02s WALL (   22568 calls)

     General routines
     calbec       :     15.76s CPU     28.23s WALL (   31598 calls)
     cft3s        :    251.70s CPU    447.35s WALL (  371569 calls)
     interpolate  :      5.39s CPU      9.87s WALL (    1138 calls)
     davcio       :      1.80s CPU      7.53s WALL (   24304 calls)

     Parallel routines

     PWSCF        : 19m 9.45s CPU time,    34m42.96s WALL time


   This run was terminated on:  23:14:23   1Mar2011            

=------------------------------------------------------------------------------=
   JOB DONE.
=------------------------------------------------------------------------------=
